# Generated using make_ls_slab.py

488 atoms
 1 atom types

-1.4433756729740645 1.4433756729740645 xlo xhi
-1.4433756729740645 1.4433756729740645 ylo yhi
-4.330127018922194 4.330127018922194 zlo zhi

Atoms

1 1 1 -1.4433756729740645 -1.4433756729740645 -4.330127018922194
2 1 1 -1.4433756729740645 -1.4433756729740645 -3.3678765702728173
3 1 1 -1.4433756729740645 -1.4433756729740645 -2.405626121623441
4 1 1 -1.4433756729740645 -1.4433756729740645 -1.4433756729740645
5 1 1 -1.4433756729740645 -1.4433756729740645 -0.4811252243246882
6 1 1 -1.4433756729740645 -1.4433756729740645 0.4811252243246882
7 1 1 -1.4433756729740645 -1.4433756729740645 1.4433756729740645
8 1 1 -1.4433756729740645 -1.4433756729740645 2.405626121623441
9 1 1 -1.4433756729740645 -1.4433756729740645 3.3678765702728173
10 1 1 -1.4433756729740645 -1.4433756729740645 4.330127018922194
11 1 1 -1.4433756729740645 -1.1226255234242724 -4.330127018922194
12 1 1 -1.4433756729740645 -1.1226255234242724 -3.3678765702728173
13 1 1 -1.4433756729740645 -1.1226255234242724 -2.405626121623441
14 1 1 -1.4433756729740645 -1.1226255234242724 -1.4433756729740645
15 1 1 -1.4433756729740645 -1.1226255234242724 -0.4811252243246882
16 1 1 -1.4433756729740645 -1.1226255234242724 0.4811252243246882
17 1 1 -1.4433756729740645 -1.1226255234242724 1.4433756729740645
18 1 1 -1.4433756729740645 -1.1226255234242724 2.405626121623441
19 1 1 -1.4433756729740645 -1.1226255234242724 3.3678765702728173
20 1 1 -1.4433756729740645 -1.1226255234242724 4.330127018922194
21 1 1 -1.4433756729740645 -0.8018753738744803 -4.330127018922194
22 1 1 -1.4433756729740645 -0.8018753738744803 -3.3678765702728173
23 1 1 -1.4433756729740645 -0.8018753738744803 -2.405626121623441
24 1 1 -1.4433756729740645 -0.8018753738744803 -1.4433756729740645
25 1 1 -1.4433756729740645 -0.8018753738744803 -0.4811252243246882
26 1 1 -1.4433756729740645 -0.8018753738744803 0.4811252243246882
27 1 1 -1.4433756729740645 -0.8018753738744803 1.4433756729740645
28 1 1 -1.4433756729740645 -0.8018753738744803 2.405626121623441
29 1 1 -1.4433756729740645 -0.8018753738744803 3.3678765702728173
30 1 1 -1.4433756729740645 -0.8018753738744803 4.330127018922194
31 1 1 -1.4433756729740645 -0.4811252243246882 -4.330127018922194
32 1 1 -1.4433756729740645 -0.4811252243246882 -3.3678765702728173
33 1 1 -1.4433756729740645 -0.4811252243246882 -2.405626121623441
34 1 1 -1.4433756729740645 -0.4811252243246882 -1.4433756729740645
35 1 1 -1.4433756729740645 -0.4811252243246882 -0.4811252243246882
36 1 1 -1.4433756729740645 -0.4811252243246882 0.4811252243246882
37 1 1 -1.4433756729740645 -0.4811252243246882 1.4433756729740645
38 1 1 -1.4433756729740645 -0.4811252243246882 2.405626121623441
39 1 1 -1.4433756729740645 -0.4811252243246882 3.3678765702728173
40 1 1 -1.4433756729740645 -0.4811252243246882 4.330127018922194
41 1 1 -1.4433756729740645 -0.160375074774896 -4.330127018922194
42 1 1 -1.4433756729740645 -0.160375074774896 -3.3678765702728173
43 1 1 -1.4433756729740645 -0.160375074774896 -2.405626121623441
44 1 1 -1.4433756729740645 -0.160375074774896 -1.4433756729740645
45 1 1 -1.4433756729740645 -0.160375074774896 -0.4811252243246882
46 1 1 -1.4433756729740645 -0.160375074774896 0.4811252243246882
47 1 1 -1.4433756729740645 -0.160375074774896 1.4433756729740645
48 1 1 -1.4433756729740645 -0.160375074774896 2.405626121623441
49 1 1 -1.4433756729740645 -0.160375074774896 3.3678765702728173
50 1 1 -1.4433756729740645 -0.160375074774896 4.330127018922194
51 1 1 -1.4433756729740645 0.1603750747748962 -4.330127018922194
52 1 1 -1.4433756729740645 0.1603750747748962 -3.3678765702728173
53 1 1 -1.4433756729740645 0.1603750747748962 -2.405626121623441
54 1 1 -1.4433756729740645 0.1603750747748962 -1.4433756729740645
55 1 1 -1.4433756729740645 0.1603750747748962 -0.4811252243246882
56 1 1 -1.4433756729740645 0.1603750747748962 0.4811252243246882
57 1 1 -1.4433756729740645 0.1603750747748962 1.4433756729740645
58 1 1 -1.4433756729740645 0.1603750747748962 2.405626121623441
59 1 1 -1.4433756729740645 0.1603750747748962 3.3678765702728173
60 1 1 -1.4433756729740645 0.1603750747748962 4.330127018922194
61 1 1 -1.4433756729740645 0.4811252243246882 -4.330127018922194
62 1 1 -1.4433756729740645 0.4811252243246882 -3.3678765702728173
63 1 1 -1.4433756729740645 0.4811252243246882 -2.405626121623441
64 1 1 -1.4433756729740645 0.4811252243246882 -1.4433756729740645
65 1 1 -1.4433756729740645 0.4811252243246882 -0.4811252243246882
66 1 1 -1.4433756729740645 0.4811252243246882 0.4811252243246882
67 1 1 -1.4433756729740645 0.4811252243246882 1.4433756729740645
68 1 1 -1.4433756729740645 0.4811252243246882 2.405626121623441
69 1 1 -1.4433756729740645 0.4811252243246882 3.3678765702728173
70 1 1 -1.4433756729740645 0.4811252243246882 4.330127018922194
71 1 1 -1.4433756729740645 0.8018753738744806 -4.330127018922194
72 1 1 -1.4433756729740645 0.8018753738744806 -3.3678765702728173
73 1 1 -1.4433756729740645 0.8018753738744806 -2.405626121623441
74 1 1 -1.4433756729740645 0.8018753738744806 -1.4433756729740645
75 1 1 -1.4433756729740645 0.8018753738744806 -0.4811252243246882
76 1 1 -1.4433756729740645 0.8018753738744806 0.4811252243246882
77 1 1 -1.4433756729740645 0.8018753738744806 1.4433756729740645
78 1 1 -1.4433756729740645 0.8018753738744806 2.405626121623441
79 1 1 -1.4433756729740645 0.8018753738744806 3.3678765702728173
80 1 1 -1.4433756729740645 0.8018753738744806 4.330127018922194
81 1 1 -1.4433756729740645 1.1226255234242726 -4.330127018922194
82 1 1 -1.4433756729740645 1.1226255234242726 -3.3678765702728173
83 1 1 -1.4433756729740645 1.1226255234242726 -2.405626121623441
84 1 1 -1.4433756729740645 1.1226255234242726 -1.4433756729740645
85 1 1 -1.4433756729740645 1.1226255234242726 -0.4811252243246882
86 1 1 -1.4433756729740645 1.1226255234242726 0.4811252243246882
87 1 1 -1.4433756729740645 1.1226255234242726 1.4433756729740645
88 1 1 -1.4433756729740645 1.1226255234242726 2.405626121623441
89 1 1 -1.4433756729740645 1.1226255234242726 3.3678765702728173
90 1 1 -1.4433756729740645 1.1226255234242726 4.330127018922194
91 1 1 -1.4433756729740645 1.4433756729740645 -4.330127018922194
92 1 1 -1.4433756729740645 1.4433756729740645 -3.3678765702728173
93 1 1 -1.4433756729740645 1.4433756729740645 -2.405626121623441
94 1 1 -1.4433756729740645 1.4433756729740645 -1.4433756729740645
95 1 1 -1.4433756729740645 1.4433756729740645 -0.4811252243246882
96 1 1 -1.4433756729740645 1.4433756729740645 0.4811252243246882
97 1 1 -1.4433756729740645 1.4433756729740645 1.4433756729740645
98 1 1 -1.4433756729740645 1.4433756729740645 2.405626121623441
99 1 1 -1.4433756729740645 1.4433756729740645 3.3678765702728173
100 1 1 -1.4433756729740645 1.4433756729740645 4.330127018922194
101 1 1 -1.1226255234242724 -1.4433756729740645 -4.330127018922194
102 1 1 -1.1226255234242724 -1.4433756729740645 -3.3678765702728173
103 1 1 -1.1226255234242724 -1.4433756729740645 -2.405626121623441
104 1 1 -1.1226255234242724 -1.4433756729740645 -1.4433756729740645
105 1 1 -1.1226255234242724 -1.4433756729740645 -0.4811252243246882
106 1 1 -1.1226255234242724 -1.4433756729740645 0.4811252243246882
107 1 1 -1.1226255234242724 -1.4433756729740645 1.4433756729740645
108 1 1 -1.1226255234242724 -1.4433756729740645 2.405626121623441
109 1 1 -1.1226255234242724 -1.4433756729740645 3.3678765702728173
110 1 1 -1.1226255234242724 -1.4433756729740645 4.330127018922194
111 1 1 -1.1226255234242724 -1.1226255234242724 -4.330127018922194
112 1 1 -1.1226255234242724 -1.1226255234242724 4.330127018922194
113 1 1 -1.1226255234242724 -0.8018753738744803 -4.330127018922194
114 1 1 -1.1226255234242724 -0.8018753738744803 4.330127018922194
115 1 1 -1.1226255234242724 -0.4811252243246882 -4.330127018922194
116 1 1 -1.1226255234242724 -0.4811252243246882 4.330127018922194
117 1 1 -1.1226255234242724 -0.160375074774896 -4.330127018922194
118 1 1 -1.1226255234242724 -0.160375074774896 4.330127018922194
119 1 1 -1.1226255234242724 0.1603750747748962 -4.330127018922194
120 1 1 -1.1226255234242724 0.1603750747748962 4.330127018922194
121 1 1 -1.1226255234242724 0.4811252243246882 -4.330127018922194
122 1 1 -1.1226255234242724 0.4811252243246882 4.330127018922194
123 1 1 -1.1226255234242724 0.8018753738744806 -4.330127018922194
124 1 1 -1.1226255234242724 0.8018753738744806 4.330127018922194
125 1 1 -1.1226255234242724 1.1226255234242726 -4.330127018922194
126 1 1 -1.1226255234242724 1.1226255234242726 4.330127018922194
127 1 1 -1.1226255234242724 1.4433756729740645 -4.330127018922194
128 1 1 -1.1226255234242724 1.4433756729740645 -3.3678765702728173
129 1 1 -1.1226255234242724 1.4433756729740645 -2.405626121623441
130 1 1 -1.1226255234242724 1.4433756729740645 -1.4433756729740645
131 1 1 -1.1226255234242724 1.4433756729740645 -0.4811252243246882
132 1 1 -1.1226255234242724 1.4433756729740645 0.4811252243246882
133 1 1 -1.1226255234242724 1.4433756729740645 1.4433756729740645
134 1 1 -1.1226255234242724 1.4433756729740645 2.405626121623441
135 1 1 -1.1226255234242724 1.4433756729740645 3.3678765702728173
136 1 1 -1.1226255234242724 1.4433756729740645 4.330127018922194
137 1 1 -0.8018753738744803 -1.4433756729740645 -4.330127018922194
138 1 1 -0.8018753738744803 -1.4433756729740645 -3.3678765702728173
139 1 1 -0.8018753738744803 -1.4433756729740645 -2.405626121623441
140 1 1 -0.8018753738744803 -1.4433756729740645 -1.4433756729740645
141 1 1 -0.8018753738744803 -1.4433756729740645 -0.4811252243246882
142 1 1 -0.8018753738744803 -1.4433756729740645 0.4811252243246882
143 1 1 -0.8018753738744803 -1.4433756729740645 1.4433756729740645
144 1 1 -0.8018753738744803 -1.4433756729740645 2.405626121623441
145 1 1 -0.8018753738744803 -1.4433756729740645 3.3678765702728173
146 1 1 -0.8018753738744803 -1.4433756729740645 4.330127018922194
147 1 1 -0.8018753738744803 -1.1226255234242724 -4.330127018922194
148 1 1 -0.8018753738744803 -1.1226255234242724 4.330127018922194
149 1 1 -0.8018753738744803 -0.8018753738744803 -4.330127018922194
150 1 1 -0.8018753738744803 -0.8018753738744803 4.330127018922194
151 1 1 -0.8018753738744803 -0.4811252243246882 -4.330127018922194
152 1 1 -0.8018753738744803 -0.4811252243246882 4.330127018922194
153 1 1 -0.8018753738744803 -0.160375074774896 -4.330127018922194
154 1 1 -0.8018753738744803 -0.160375074774896 4.330127018922194
155 1 1 -0.8018753738744803 0.1603750747748962 -4.330127018922194
156 1 1 -0.8018753738744803 0.1603750747748962 4.330127018922194
157 1 1 -0.8018753738744803 0.4811252243246882 -4.330127018922194
158 1 1 -0.8018753738744803 0.4811252243246882 4.330127018922194
159 1 1 -0.8018753738744803 0.8018753738744806 -4.330127018922194
160 1 1 -0.8018753738744803 0.8018753738744806 4.330127018922194
161 1 1 -0.8018753738744803 1.1226255234242726 -4.330127018922194
162 1 1 -0.8018753738744803 1.1226255234242726 4.330127018922194
163 1 1 -0.8018753738744803 1.4433756729740645 -4.330127018922194
164 1 1 -0.8018753738744803 1.4433756729740645 -3.3678765702728173
165 1 1 -0.8018753738744803 1.4433756729740645 -2.405626121623441
166 1 1 -0.8018753738744803 1.4433756729740645 -1.4433756729740645
167 1 1 -0.8018753738744803 1.4433756729740645 -0.4811252243246882
168 1 1 -0.8018753738744803 1.4433756729740645 0.4811252243246882
169 1 1 -0.8018753738744803 1.4433756729740645 1.4433756729740645
170 1 1 -0.8018753738744803 1.4433756729740645 2.405626121623441
171 1 1 -0.8018753738744803 1.4433756729740645 3.3678765702728173
172 1 1 -0.8018753738744803 1.4433756729740645 4.330127018922194
173 1 1 -0.4811252243246882 -1.4433756729740645 -4.330127018922194
174 1 1 -0.4811252243246882 -1.4433756729740645 -3.3678765702728173
175 1 1 -0.4811252243246882 -1.4433756729740645 -2.405626121623441
176 1 1 -0.4811252243246882 -1.4433756729740645 -1.4433756729740645
177 1 1 -0.4811252243246882 -1.4433756729740645 -0.4811252243246882
178 1 1 -0.4811252243246882 -1.4433756729740645 0.4811252243246882
179 1 1 -0.4811252243246882 -1.4433756729740645 1.4433756729740645
180 1 1 -0.4811252243246882 -1.4433756729740645 2.405626121623441
181 1 1 -0.4811252243246882 -1.4433756729740645 3.3678765702728173
182 1 1 -0.4811252243246882 -1.4433756729740645 4.330127018922194
183 1 1 -0.4811252243246882 -1.1226255234242724 -4.330127018922194
184 1 1 -0.4811252243246882 -1.1226255234242724 4.330127018922194
185 1 1 -0.4811252243246882 -0.8018753738744803 -4.330127018922194
186 1 1 -0.4811252243246882 -0.8018753738744803 4.330127018922194
187 1 1 -0.4811252243246882 -0.4811252243246882 -4.330127018922194
188 1 1 -0.4811252243246882 -0.4811252243246882 4.330127018922194
189 1 1 -0.4811252243246882 -0.160375074774896 -4.330127018922194
190 1 1 -0.4811252243246882 -0.160375074774896 4.330127018922194
191 1 1 -0.4811252243246882 0.1603750747748962 -4.330127018922194
192 1 1 -0.4811252243246882 0.1603750747748962 4.330127018922194
193 1 1 -0.4811252243246882 0.4811252243246882 -4.330127018922194
194 1 1 -0.4811252243246882 0.4811252243246882 4.330127018922194
195 1 1 -0.4811252243246882 0.8018753738744806 -4.330127018922194
196 1 1 -0.4811252243246882 0.8018753738744806 4.330127018922194
197 1 1 -0.4811252243246882 1.1226255234242726 -4.330127018922194
198 1 1 -0.4811252243246882 1.1226255234242726 4.330127018922194
199 1 1 -0.4811252243246882 1.4433756729740645 -4.330127018922194
200 1 1 -0.4811252243246882 1.4433756729740645 -3.3678765702728173
201 1 1 -0.4811252243246882 1.4433756729740645 -2.405626121623441
202 1 1 -0.4811252243246882 1.4433756729740645 -1.4433756729740645
203 1 1 -0.4811252243246882 1.4433756729740645 -0.4811252243246882
204 1 1 -0.4811252243246882 1.4433756729740645 0.4811252243246882
205 1 1 -0.4811252243246882 1.4433756729740645 1.4433756729740645
206 1 1 -0.4811252243246882 1.4433756729740645 2.405626121623441
207 1 1 -0.4811252243246882 1.4433756729740645 3.3678765702728173
208 1 1 -0.4811252243246882 1.4433756729740645 4.330127018922194
209 1 1 -0.160375074774896 -1.4433756729740645 -4.330127018922194
210 1 1 -0.160375074774896 -1.4433756729740645 -3.3678765702728173
211 1 1 -0.160375074774896 -1.4433756729740645 -2.405626121623441
212 1 1 -0.160375074774896 -1.4433756729740645 -1.4433756729740645
213 1 1 -0.160375074774896 -1.4433756729740645 -0.4811252243246882
214 1 1 -0.160375074774896 -1.4433756729740645 0.4811252243246882
215 1 1 -0.160375074774896 -1.4433756729740645 1.4433756729740645
216 1 1 -0.160375074774896 -1.4433756729740645 2.405626121623441
217 1 1 -0.160375074774896 -1.4433756729740645 3.3678765702728173
218 1 1 -0.160375074774896 -1.4433756729740645 4.330127018922194
219 1 1 -0.160375074774896 -1.1226255234242724 -4.330127018922194
220 1 1 -0.160375074774896 -1.1226255234242724 4.330127018922194
221 1 1 -0.160375074774896 -0.8018753738744803 -4.330127018922194
222 1 1 -0.160375074774896 -0.8018753738744803 4.330127018922194
223 1 1 -0.160375074774896 -0.4811252243246882 -4.330127018922194
224 1 1 -0.160375074774896 -0.4811252243246882 4.330127018922194
225 1 1 -0.160375074774896 -0.160375074774896 -4.330127018922194
226 1 1 -0.160375074774896 -0.160375074774896 4.330127018922194
227 1 1 -0.160375074774896 0.1603750747748962 -4.330127018922194
228 1 1 -0.160375074774896 0.1603750747748962 4.330127018922194
229 1 1 -0.160375074774896 0.4811252243246882 -4.330127018922194
230 1 1 -0.160375074774896 0.4811252243246882 4.330127018922194
231 1 1 -0.160375074774896 0.8018753738744806 -4.330127018922194
232 1 1 -0.160375074774896 0.8018753738744806 4.330127018922194
233 1 1 -0.160375074774896 1.1226255234242726 -4.330127018922194
234 1 1 -0.160375074774896 1.1226255234242726 4.330127018922194
235 1 1 -0.160375074774896 1.4433756729740645 -4.330127018922194
236 1 1 -0.160375074774896 1.4433756729740645 -3.3678765702728173
237 1 1 -0.160375074774896 1.4433756729740645 -2.405626121623441
238 1 1 -0.160375074774896 1.4433756729740645 -1.4433756729740645
239 1 1 -0.160375074774896 1.4433756729740645 -0.4811252243246882
240 1 1 -0.160375074774896 1.4433756729740645 0.4811252243246882
241 1 1 -0.160375074774896 1.4433756729740645 1.4433756729740645
242 1 1 -0.160375074774896 1.4433756729740645 2.405626121623441
243 1 1 -0.160375074774896 1.4433756729740645 3.3678765702728173
244 1 1 -0.160375074774896 1.4433756729740645 4.330127018922194
245 1 1 0.1603750747748962 -1.4433756729740645 -4.330127018922194
246 1 1 0.1603750747748962 -1.4433756729740645 -3.3678765702728173
247 1 1 0.1603750747748962 -1.4433756729740645 -2.405626121623441
248 1 1 0.1603750747748962 -1.4433756729740645 -1.4433756729740645
249 1 1 0.1603750747748962 -1.4433756729740645 -0.4811252243246882
250 1 1 0.1603750747748962 -1.4433756729740645 0.4811252243246882
251 1 1 0.1603750747748962 -1.4433756729740645 1.4433756729740645
252 1 1 0.1603750747748962 -1.4433756729740645 2.405626121623441
253 1 1 0.1603750747748962 -1.4433756729740645 3.3678765702728173
254 1 1 0.1603750747748962 -1.4433756729740645 4.330127018922194
255 1 1 0.1603750747748962 -1.1226255234242724 -4.330127018922194
256 1 1 0.1603750747748962 -1.1226255234242724 4.330127018922194
257 1 1 0.1603750747748962 -0.8018753738744803 -4.330127018922194
258 1 1 0.1603750747748962 -0.8018753738744803 4.330127018922194
259 1 1 0.1603750747748962 -0.4811252243246882 -4.330127018922194
260 1 1 0.1603750747748962 -0.4811252243246882 4.330127018922194
261 1 1 0.1603750747748962 -0.160375074774896 -4.330127018922194
262 1 1 0.1603750747748962 -0.160375074774896 4.330127018922194
263 1 1 0.1603750747748962 0.1603750747748962 -4.330127018922194
264 1 1 0.1603750747748962 0.1603750747748962 4.330127018922194
265 1 1 0.1603750747748962 0.4811252243246882 -4.330127018922194
266 1 1 0.1603750747748962 0.4811252243246882 4.330127018922194
267 1 1 0.1603750747748962 0.8018753738744806 -4.330127018922194
268 1 1 0.1603750747748962 0.8018753738744806 4.330127018922194
269 1 1 0.1603750747748962 1.1226255234242726 -4.330127018922194
270 1 1 0.1603750747748962 1.1226255234242726 4.330127018922194
271 1 1 0.1603750747748962 1.4433756729740645 -4.330127018922194
272 1 1 0.1603750747748962 1.4433756729740645 -3.3678765702728173
273 1 1 0.1603750747748962 1.4433756729740645 -2.405626121623441
274 1 1 0.1603750747748962 1.4433756729740645 -1.4433756729740645
275 1 1 0.1603750747748962 1.4433756729740645 -0.4811252243246882
276 1 1 0.1603750747748962 1.4433756729740645 0.4811252243246882
277 1 1 0.1603750747748962 1.4433756729740645 1.4433756729740645
278 1 1 0.1603750747748962 1.4433756729740645 2.405626121623441
279 1 1 0.1603750747748962 1.4433756729740645 3.3678765702728173
280 1 1 0.1603750747748962 1.4433756729740645 4.330127018922194
281 1 1 0.4811252243246882 -1.4433756729740645 -4.330127018922194
282 1 1 0.4811252243246882 -1.4433756729740645 -3.3678765702728173
283 1 1 0.4811252243246882 -1.4433756729740645 -2.405626121623441
284 1 1 0.4811252243246882 -1.4433756729740645 -1.4433756729740645
285 1 1 0.4811252243246882 -1.4433756729740645 -0.4811252243246882
286 1 1 0.4811252243246882 -1.4433756729740645 0.4811252243246882
287 1 1 0.4811252243246882 -1.4433756729740645 1.4433756729740645
288 1 1 0.4811252243246882 -1.4433756729740645 2.405626121623441
289 1 1 0.4811252243246882 -1.4433756729740645 3.3678765702728173
290 1 1 0.4811252243246882 -1.4433756729740645 4.330127018922194
291 1 1 0.4811252243246882 -1.1226255234242724 -4.330127018922194
292 1 1 0.4811252243246882 -1.1226255234242724 4.330127018922194
293 1 1 0.4811252243246882 -0.8018753738744803 -4.330127018922194
294 1 1 0.4811252243246882 -0.8018753738744803 4.330127018922194
295 1 1 0.4811252243246882 -0.4811252243246882 -4.330127018922194
296 1 1 0.4811252243246882 -0.4811252243246882 4.330127018922194
297 1 1 0.4811252243246882 -0.160375074774896 -4.330127018922194
298 1 1 0.4811252243246882 -0.160375074774896 4.330127018922194
299 1 1 0.4811252243246882 0.1603750747748962 -4.330127018922194
300 1 1 0.4811252243246882 0.1603750747748962 4.330127018922194
301 1 1 0.4811252243246882 0.4811252243246882 -4.330127018922194
302 1 1 0.4811252243246882 0.4811252243246882 4.330127018922194
303 1 1 0.4811252243246882 0.8018753738744806 -4.330127018922194
304 1 1 0.4811252243246882 0.8018753738744806 4.330127018922194
305 1 1 0.4811252243246882 1.1226255234242726 -4.330127018922194
306 1 1 0.4811252243246882 1.1226255234242726 4.330127018922194
307 1 1 0.4811252243246882 1.4433756729740645 -4.330127018922194
308 1 1 0.4811252243246882 1.4433756729740645 -3.3678765702728173
309 1 1 0.4811252243246882 1.4433756729740645 -2.405626121623441
310 1 1 0.4811252243246882 1.4433756729740645 -1.4433756729740645
311 1 1 0.4811252243246882 1.4433756729740645 -0.4811252243246882
312 1 1 0.4811252243246882 1.4433756729740645 0.4811252243246882
313 1 1 0.4811252243246882 1.4433756729740645 1.4433756729740645
314 1 1 0.4811252243246882 1.4433756729740645 2.405626121623441
315 1 1 0.4811252243246882 1.4433756729740645 3.3678765702728173
316 1 1 0.4811252243246882 1.4433756729740645 4.330127018922194
317 1 1 0.8018753738744806 -1.4433756729740645 -4.330127018922194
318 1 1 0.8018753738744806 -1.4433756729740645 -3.3678765702728173
319 1 1 0.8018753738744806 -1.4433756729740645 -2.405626121623441
320 1 1 0.8018753738744806 -1.4433756729740645 -1.4433756729740645
321 1 1 0.8018753738744806 -1.4433756729740645 -0.4811252243246882
322 1 1 0.8018753738744806 -1.4433756729740645 0.4811252243246882
323 1 1 0.8018753738744806 -1.4433756729740645 1.4433756729740645
324 1 1 0.8018753738744806 -1.4433756729740645 2.405626121623441
325 1 1 0.8018753738744806 -1.4433756729740645 3.3678765702728173
326 1 1 0.8018753738744806 -1.4433756729740645 4.330127018922194
327 1 1 0.8018753738744806 -1.1226255234242724 -4.330127018922194
328 1 1 0.8018753738744806 -1.1226255234242724 4.330127018922194
329 1 1 0.8018753738744806 -0.8018753738744803 -4.330127018922194
330 1 1 0.8018753738744806 -0.8018753738744803 4.330127018922194
331 1 1 0.8018753738744806 -0.4811252243246882 -4.330127018922194
332 1 1 0.8018753738744806 -0.4811252243246882 4.330127018922194
333 1 1 0.8018753738744806 -0.160375074774896 -4.330127018922194
334 1 1 0.8018753738744806 -0.160375074774896 4.330127018922194
335 1 1 0.8018753738744806 0.1603750747748962 -4.330127018922194
336 1 1 0.8018753738744806 0.1603750747748962 4.330127018922194
337 1 1 0.8018753738744806 0.4811252243246882 -4.330127018922194
338 1 1 0.8018753738744806 0.4811252243246882 4.330127018922194
339 1 1 0.8018753738744806 0.8018753738744806 -4.330127018922194
340 1 1 0.8018753738744806 0.8018753738744806 4.330127018922194
341 1 1 0.8018753738744806 1.1226255234242726 -4.330127018922194
342 1 1 0.8018753738744806 1.1226255234242726 4.330127018922194
343 1 1 0.8018753738744806 1.4433756729740645 -4.330127018922194
344 1 1 0.8018753738744806 1.4433756729740645 -3.3678765702728173
345 1 1 0.8018753738744806 1.4433756729740645 -2.405626121623441
346 1 1 0.8018753738744806 1.4433756729740645 -1.4433756729740645
347 1 1 0.8018753738744806 1.4433756729740645 -0.4811252243246882
348 1 1 0.8018753738744806 1.4433756729740645 0.4811252243246882
349 1 1 0.8018753738744806 1.4433756729740645 1.4433756729740645
350 1 1 0.8018753738744806 1.4433756729740645 2.405626121623441
351 1 1 0.8018753738744806 1.4433756729740645 3.3678765702728173
352 1 1 0.8018753738744806 1.4433756729740645 4.330127018922194
353 1 1 1.1226255234242726 -1.4433756729740645 -4.330127018922194
354 1 1 1.1226255234242726 -1.4433756729740645 -3.3678765702728173
355 1 1 1.1226255234242726 -1.4433756729740645 -2.405626121623441
356 1 1 1.1226255234242726 -1.4433756729740645 -1.4433756729740645
357 1 1 1.1226255234242726 -1.4433756729740645 -0.4811252243246882
358 1 1 1.1226255234242726 -1.4433756729740645 0.4811252243246882
359 1 1 1.1226255234242726 -1.4433756729740645 1.4433756729740645
360 1 1 1.1226255234242726 -1.4433756729740645 2.405626121623441
361 1 1 1.1226255234242726 -1.4433756729740645 3.3678765702728173
362 1 1 1.1226255234242726 -1.4433756729740645 4.330127018922194
363 1 1 1.1226255234242726 -1.1226255234242724 -4.330127018922194
364 1 1 1.1226255234242726 -1.1226255234242724 4.330127018922194
365 1 1 1.1226255234242726 -0.8018753738744803 -4.330127018922194
366 1 1 1.1226255234242726 -0.8018753738744803 4.330127018922194
367 1 1 1.1226255234242726 -0.4811252243246882 -4.330127018922194
368 1 1 1.1226255234242726 -0.4811252243246882 4.330127018922194
369 1 1 1.1226255234242726 -0.160375074774896 -4.330127018922194
370 1 1 1.1226255234242726 -0.160375074774896 4.330127018922194
371 1 1 1.1226255234242726 0.1603750747748962 -4.330127018922194
372 1 1 1.1226255234242726 0.1603750747748962 4.330127018922194
373 1 1 1.1226255234242726 0.4811252243246882 -4.330127018922194
374 1 1 1.1226255234242726 0.4811252243246882 4.330127018922194
375 1 1 1.1226255234242726 0.8018753738744806 -4.330127018922194
376 1 1 1.1226255234242726 0.8018753738744806 4.330127018922194
377 1 1 1.1226255234242726 1.1226255234242726 -4.330127018922194
378 1 1 1.1226255234242726 1.1226255234242726 4.330127018922194
379 1 1 1.1226255234242726 1.4433756729740645 -4.330127018922194
380 1 1 1.1226255234242726 1.4433756729740645 -3.3678765702728173
381 1 1 1.1226255234242726 1.4433756729740645 -2.405626121623441
382 1 1 1.1226255234242726 1.4433756729740645 -1.4433756729740645
383 1 1 1.1226255234242726 1.4433756729740645 -0.4811252243246882
384 1 1 1.1226255234242726 1.4433756729740645 0.4811252243246882
385 1 1 1.1226255234242726 1.4433756729740645 1.4433756729740645
386 1 1 1.1226255234242726 1.4433756729740645 2.405626121623441
387 1 1 1.1226255234242726 1.4433756729740645 3.3678765702728173
388 1 1 1.1226255234242726 1.4433756729740645 4.330127018922194
389 1 1 1.4433756729740645 -1.4433756729740645 -4.330127018922194
390 1 1 1.4433756729740645 -1.4433756729740645 -3.3678765702728173
391 1 1 1.4433756729740645 -1.4433756729740645 -2.405626121623441
392 1 1 1.4433756729740645 -1.4433756729740645 -1.4433756729740645
393 1 1 1.4433756729740645 -1.4433756729740645 -0.4811252243246882
394 1 1 1.4433756729740645 -1.4433756729740645 0.4811252243246882
395 1 1 1.4433756729740645 -1.4433756729740645 1.4433756729740645
396 1 1 1.4433756729740645 -1.4433756729740645 2.405626121623441
397 1 1 1.4433756729740645 -1.4433756729740645 3.3678765702728173
398 1 1 1.4433756729740645 -1.4433756729740645 4.330127018922194
399 1 1 1.4433756729740645 -1.1226255234242724 -4.330127018922194
400 1 1 1.4433756729740645 -1.1226255234242724 -3.3678765702728173
401 1 1 1.4433756729740645 -1.1226255234242724 -2.405626121623441
402 1 1 1.4433756729740645 -1.1226255234242724 -1.4433756729740645
403 1 1 1.4433756729740645 -1.1226255234242724 -0.4811252243246882
404 1 1 1.4433756729740645 -1.1226255234242724 0.4811252243246882
405 1 1 1.4433756729740645 -1.1226255234242724 1.4433756729740645
406 1 1 1.4433756729740645 -1.1226255234242724 2.405626121623441
407 1 1 1.4433756729740645 -1.1226255234242724 3.3678765702728173
408 1 1 1.4433756729740645 -1.1226255234242724 4.330127018922194
409 1 1 1.4433756729740645 -0.8018753738744803 -4.330127018922194
410 1 1 1.4433756729740645 -0.8018753738744803 -3.3678765702728173
411 1 1 1.4433756729740645 -0.8018753738744803 -2.405626121623441
412 1 1 1.4433756729740645 -0.8018753738744803 -1.4433756729740645
413 1 1 1.4433756729740645 -0.8018753738744803 -0.4811252243246882
414 1 1 1.4433756729740645 -0.8018753738744803 0.4811252243246882
415 1 1 1.4433756729740645 -0.8018753738744803 1.4433756729740645
416 1 1 1.4433756729740645 -0.8018753738744803 2.405626121623441
417 1 1 1.4433756729740645 -0.8018753738744803 3.3678765702728173
418 1 1 1.4433756729740645 -0.8018753738744803 4.330127018922194
419 1 1 1.4433756729740645 -0.4811252243246882 -4.330127018922194
420 1 1 1.4433756729740645 -0.4811252243246882 -3.3678765702728173
421 1 1 1.4433756729740645 -0.4811252243246882 -2.405626121623441
422 1 1 1.4433756729740645 -0.4811252243246882 -1.4433756729740645
423 1 1 1.4433756729740645 -0.4811252243246882 -0.4811252243246882
424 1 1 1.4433756729740645 -0.4811252243246882 0.4811252243246882
425 1 1 1.4433756729740645 -0.4811252243246882 1.4433756729740645
426 1 1 1.4433756729740645 -0.4811252243246882 2.405626121623441
427 1 1 1.4433756729740645 -0.4811252243246882 3.3678765702728173
428 1 1 1.4433756729740645 -0.4811252243246882 4.330127018922194
429 1 1 1.4433756729740645 -0.160375074774896 -4.330127018922194
430 1 1 1.4433756729740645 -0.160375074774896 -3.3678765702728173
431 1 1 1.4433756729740645 -0.160375074774896 -2.405626121623441
432 1 1 1.4433756729740645 -0.160375074774896 -1.4433756729740645
433 1 1 1.4433756729740645 -0.160375074774896 -0.4811252243246882
434 1 1 1.4433756729740645 -0.160375074774896 0.4811252243246882
435 1 1 1.4433756729740645 -0.160375074774896 1.4433756729740645
436 1 1 1.4433756729740645 -0.160375074774896 2.405626121623441
437 1 1 1.4433756729740645 -0.160375074774896 3.3678765702728173
438 1 1 1.4433756729740645 -0.160375074774896 4.330127018922194
439 1 1 1.4433756729740645 0.1603750747748962 -4.330127018922194
440 1 1 1.4433756729740645 0.1603750747748962 -3.3678765702728173
441 1 1 1.4433756729740645 0.1603750747748962 -2.405626121623441
442 1 1 1.4433756729740645 0.1603750747748962 -1.4433756729740645
443 1 1 1.4433756729740645 0.1603750747748962 -0.4811252243246882
444 1 1 1.4433756729740645 0.1603750747748962 0.4811252243246882
445 1 1 1.4433756729740645 0.1603750747748962 1.4433756729740645
446 1 1 1.4433756729740645 0.1603750747748962 2.405626121623441
447 1 1 1.4433756729740645 0.1603750747748962 3.3678765702728173
448 1 1 1.4433756729740645 0.1603750747748962 4.330127018922194
449 1 1 1.4433756729740645 0.4811252243246882 -4.330127018922194
450 1 1 1.4433756729740645 0.4811252243246882 -3.3678765702728173
451 1 1 1.4433756729740645 0.4811252243246882 -2.405626121623441
452 1 1 1.4433756729740645 0.4811252243246882 -1.4433756729740645
453 1 1 1.4433756729740645 0.4811252243246882 -0.4811252243246882
454 1 1 1.4433756729740645 0.4811252243246882 0.4811252243246882