# Generated using make_nodes_plate.py (hexagonal lattice sampling)

17734 atoms
 1 atom types

-2.5 2.5 xlo xhi
-2.5 2.5 ylo yhi
-0.5 0.5 zlo zhi

Atoms

1 1 1 1.0 -2.5 -2.491531321114 -0.466536090467
2 1 1 1.0 -2.5 -2.491531321114 -0.34990206785
3 1 1 1.0 -2.5 -2.491531321114 -0.233268045233
4 1 1 1.0 -2.5 -2.491531321114 -0.116634022617
5 1 1 1.0 -2.5 -2.491531321114 0.0
6 1 1 1.0 -2.5 -2.491531321114 0.116634022617
7 1 1 1.0 -2.5 -2.491531321114 0.233268045233
8 1 1 1.0 -2.5 -2.491531321114 0.34990206785
9 1 1 1.0 -2.5 -2.491531321114 0.466536090467
10 1 1 1.0 -2.5 -2.457861978937 -0.408219079159
11 1 1 1.0 -2.5 -2.457861978937 -0.291585056542
12 1 1 1.0 -2.5 -2.457861978937 -0.174951033925
13 1 1 1.0 -2.5 -2.457861978937 -0.058317011308
14 1 1 1.0 -2.5 -2.457861978937 0.058317011308
15 1 1 1.0 -2.5 -2.457861978937 0.174951033925
16 1 1 1.0 -2.5 -2.457861978937 0.291585056542
17 1 1 1.0 -2.5 -2.457861978937 0.408219079159
18 1 1 1.0 -2.5 -2.424192636759 -0.466536090467
19 1 1 1.0 -2.5 -2.424192636759 -0.34990206785
20 1 1 1.0 -2.5 -2.424192636759 -0.233268045233
21 1 1 1.0 -2.5 -2.424192636759 -0.116634022617
22 1 1 1.0 -2.5 -2.424192636759 0.0
23 1 1 1.0 -2.5 -2.424192636759 0.116634022617
24 1 1 1.0 -2.5 -2.424192636759 0.233268045233
25 1 1 1.0 -2.5 -2.424192636759 0.34990206785
26 1 1 1.0 -2.5 -2.424192636759 0.466536090467
27 1 1 1.0 -2.5 -2.390523294582 -0.408219079159
28 1 1 1.0 -2.5 -2.390523294582 -0.291585056542
29 1 1 1.0 -2.5 -2.390523294582 -0.174951033925
30 1 1 1.0 -2.5 -2.390523294582 -0.058317011308
31 1 1 1.0 -2.5 -2.390523294582 0.058317011308
32 1 1 1.0 -2.5 -2.390523294582 0.174951033925
33 1 1 1.0 -2.5 -2.390523294582 0.291585056542
34 1 1 1.0 -2.5 -2.390523294582 0.408219079159
35 1 1 1.0 -2.5 -2.356853952405 -0.466536090467
36 1 1 1.0 -2.5 -2.356853952405 -0.34990206785
37 1 1 1.0 -2.5 -2.356853952405 -0.233268045233
38 1 1 1.0 -2.5 -2.356853952405 -0.116634022617
39 1 1 1.0 -2.5 -2.356853952405 0.0
40 1 1 1.0 -2.5 -2.356853952405 0.116634022617
41 1 1 1.0 -2.5 -2.356853952405 0.233268045233
42 1 1 1.0 -2.5 -2.356853952405 0.34990206785
43 1 1 1.0 -2.5 -2.356853952405 0.466536090467
44 1 1 1.0 -2.5 -2.323184610228 -0.408219079159
45 1 1 1.0 -2.5 -2.323184610228 -0.291585056542
46 1 1 1.0 -2.5 -2.323184610228 -0.174951033925
47 1 1 1.0 -2.5 -2.323184610228 -0.058317011308
48 1 1 1.0 -2.5 -2.323184610228 0.058317011308
49 1 1 1.0 -2.5 -2.323184610228 0.174951033925
50 1 1 1.0 -2.5 -2.323184610228 0.291585056542
51 1 1 1.0 -2.5 -2.323184610228 0.408219079159
52 1 1 1.0 -2.5 -2.289515268051 -0.466536090467
53 1 1 1.0 -2.5 -2.289515268051 -0.34990206785
54 1 1 1.0 -2.5 -2.289515268051 -0.233268045233
55 1 1 1.0 -2.5 -2.289515268051 -0.116634022617
56 1 1 1.0 -2.5 -2.289515268051 0.0
57 1 1 1.0 -2.5 -2.289515268051 0.116634022617
58 1 1 1.0 -2.5 -2.289515268051 0.233268045233
59 1 1 1.0 -2.5 -2.289515268051 0.34990206785
60 1 1 1.0 -2.5 -2.289515268051 0.466536090467
61 1 1 1.0 -2.5 -2.255845925873 -0.408219079159
62 1 1 1.0 -2.5 -2.255845925873 -0.291585056542
63 1 1 1.0 -2.5 -2.255845925873 -0.174951033925
64 1 1 1.0 -2.5 -2.255845925873 -0.058317011308
65 1 1 1.0 -2.5 -2.255845925873 0.058317011308
66 1 1 1.0 -2.5 -2.255845925873 0.174951033925
67 1 1 1.0 -2.5 -2.255845925873 0.291585056542
68 1 1 1.0 -2.5 -2.255845925873 0.408219079159
69 1 1 1.0 -2.5 -2.222176583696 -0.466536090467
70 1 1 1.0 -2.5 -2.222176583696 -0.34990206785
71 1 1 1.0 -2.5 -2.222176583696 -0.233268045233
72 1 1 1.0 -2.5 -2.222176583696 -0.116634022617
73 1 1 1.0 -2.5 -2.222176583696 0.0
74 1 1 1.0 -2.5 -2.222176583696 0.116634022617
75 1 1 1.0 -2.5 -2.222176583696 0.233268045233
76 1 1 1.0 -2.5 -2.222176583696 0.34990206785
77 1 1 1.0 -2.5 -2.222176583696 0.466536090467
78 1 1 1.0 -2.5 -2.188507241519 -0.408219079159
79 1 1 1.0 -2.5 -2.188507241519 -0.291585056542
80 1 1 1.0 -2.5 -2.188507241519 -0.174951033925
81 1 1 1.0 -2.5 -2.188507241519 -0.058317011308
82 1 1 1.0 -2.5 -2.188507241519 0.058317011308
83 1 1 1.0 -2.5 -2.188507241519 0.174951033925
84 1 1 1.0 -2.5 -2.188507241519 0.291585056542
85 1 1 1.0 -2.5 -2.188507241519 0.408219079159
86 1 1 1.0 -2.5 -2.154837899342 -0.466536090467
87 1 1 1.0 -2.5 -2.154837899342 -0.34990206785
88 1 1 1.0 -2.5 -2.154837899342 -0.233268045233
89 1 1 1.0 -2.5 -2.154837899342 -0.116634022617
90 1 1 1.0 -2.5 -2.154837899342 0.0
91 1 1 1.0 -2.5 -2.154837899342 0.116634022617
92 1 1 1.0 -2.5 -2.154837899342 0.233268045233
93 1 1 1.0 -2.5 -2.154837899342 0.34990206785
94 1 1 1.0 -2.5 -2.154837899342 0.466536090467
95 1 1 1.0 -2.5 -2.121168557165 -0.408219079159
96 1 1 1.0 -2.5 -2.121168557165 -0.291585056542
97 1 1 1.0 -2.5 -2.121168557165 -0.174951033925
98 1 1 1.0 -2.5 -2.121168557165 -0.058317011308
99 1 1 1.0 -2.5 -2.121168557165 0.058317011308
100 1 1 1.0 -2.5 -2.121168557165 0.174951033925
101 1 1 1.0 -2.5 -2.121168557165 0.291585056542
102 1 1 1.0 -2.5 -2.121168557165 0.408219079159
103 1 1 1.0 -2.5 -2.087499214987 -0.466536090467
104 1 1 1.0 -2.5 -2.087499214987 -0.34990206785
105 1 1 1.0 -2.5 -2.087499214987 -0.233268045233
106 1 1 1.0 -2.5 -2.087499214987 -0.116634022617
107 1 1 1.0 -2.5 -2.087499214987 0.0
108 1 1 1.0 -2.5 -2.087499214987 0.116634022617
109 1 1 1.0 -2.5 -2.087499214987 0.233268045233
110 1 1 1.0 -2.5 -2.087499214987 0.34990206785
111 1 1 1.0 -2.5 -2.087499214987 0.466536090467
112 1 1 1.0 -2.5 -2.05382987281 -0.408219079159
113 1 1 1.0 -2.5 -2.05382987281 -0.291585056542
114 1 1 1.0 -2.5 -2.05382987281 -0.174951033925
115 1 1 1.0 -2.5 -2.05382987281 -0.058317011308
116 1 1 1.0 -2.5 -2.05382987281 0.058317011308
117 1 1 1.0 -2.5 -2.05382987281 0.174951033925
118 1 1 1.0 -2.5 -2.05382987281 0.291585056542
119 1 1 1.0 -2.5 -2.05382987281 0.408219079159
120 1 1 1.0 -2.5 -2.020160530633 -0.466536090467
121 1 1 1.0 -2.5 -2.020160530633 -0.34990206785
122 1 1 1.0 -2.5 -2.020160530633 -0.233268045233
123 1 1 1.0 -2.5 -2.020160530633 -0.116634022617
124 1 1 1.0 -2.5 -2.020160530633 0.0
125 1 1 1.0 -2.5 -2.020160530633 0.116634022617
126 1 1 1.0 -2.5 -2.020160530633 0.233268045233
127 1 1 1.0 -2.5 -2.020160530633 0.34990206785
128 1 1 1.0 -2.5 -2.020160530633 0.466536090467
129 1 1 1.0 -2.5 -1.986491188456 -0.408219079159
130 1 1 1.0 -2.5 -1.986491188456 -0.291585056542
131 1 1 1.0 -2.5 -1.986491188456 -0.174951033925
132 1 1 1.0 -2.5 -1.986491188456 -0.058317011308
133 1 1 1.0 -2.5 -1.986491188456 0.058317011308
134 1 1 1.0 -2.5 -1.986491188456 0.174951033925
135 1 1 1.0 -2.5 -1.986491188456 0.291585056542
136 1 1 1.0 -2.5 -1.986491188456 0.408219079159
137 1 1 1.0 -2.5 -1.952821846278 -0.466536090467
138 1 1 1.0 -2.5 -1.952821846278 -0.34990206785
139 1 1 1.0 -2.5 -1.952821846278 -0.233268045233
140 1 1 1.0 -2.5 -1.952821846278 -0.116634022617
141 1 1 1.0 -2.5 -1.952821846278 0.0
142 1 1 1.0 -2.5 -1.952821846278 0.116634022617
143 1 1 1.0 -2.5 -1.952821846278 0.233268045233
144 1 1 1.0 -2.5 -1.952821846278 0.34990206785
145 1 1 1.0 -2.5 -1.952821846278 0.466536090467
146 1 1 1.0 -2.5 -1.919152504101 -0.408219079159
147 1 1 1.0 -2.5 -1.919152504101 -0.291585056542
148 1 1 1.0 -2.5 -1.919152504101 -0.174951033925
149 1 1 1.0 -2.5 -1.919152504101 -0.058317011308
150 1 1 1.0 -2.5 -1.919152504101 0.058317011308
151 1 1 1.0 -2.5 -1.919152504101 0.174951033925
152 1 1 1.0 -2.5 -1.919152504101 0.291585056542
153 1 1 1.0 -2.5 -1.919152504101 0.408219079159
154 1 1 1.0 -2.5 -1.885483161924 -0.466536090467
155 1 1 1.0 -2.5 -1.885483161924 -0.34990206785
156 1 1 1.0 -2.5 -1.885483161924 -0.233268045233
157 1 1 1.0 -2.5 -1.885483161924 -0.116634022617
158 1 1 1.0 -2.5 -1.885483161924 0.0
159 1 1 1.0 -2.5 -1.885483161924 0.116634022617
160 1 1 1.0 -2.5 -1.885483161924 0.233268045233
161 1 1 1.0 -2.5 -1.885483161924 0.34990206785
162 1 1 1.0 -2.5 -1.885483161924 0.466536090467
163 1 1 1.0 -2.5 -1.851813819747 -0.408219079159
164 1 1 1.0 -2.5 -1.851813819747 -0.291585056542
165 1 1 1.0 -2.5 -1.851813819747 -0.174951033925
166 1 1 1.0 -2.5 -1.851813819747 -0.058317011308
167 1 1 1.0 -2.5 -1.851813819747 0.058317011308
168 1 1 1.0 -2.5 -1.851813819747 0.174951033925
169 1 1 1.0 -2.5 -1.851813819747 0.291585056542
170 1 1 1.0 -2.5 -1.851813819747 0.408219079159
171 1 1 1.0 -2.5 -1.81814447757 -0.466536090467
172 1 1 1.0 -2.5 -1.81814447757 -0.34990206785
173 1 1 1.0 -2.5 -1.81814447757 -0.233268045233
174 1 1 1.0 -2.5 -1.81814447757 -0.116634022617
175 1 1 1.0 -2.5 -1.81814447757 0.0
176 1 1 1.0 -2.5 -1.81814447757 0.116634022617
177 1 1 1.0 -2.5 -1.81814447757 0.233268045233
178 1 1 1.0 -2.5 -1.81814447757 0.34990206785
179 1 1 1.0 -2.5 -1.81814447757 0.466536090467
180 1 1 1.0 -2.5 -1.784475135392 -0.408219079159
181 1 1 1.0 -2.5 -1.784475135392 -0.291585056542
182 1 1 1.0 -2.5 -1.784475135392 -0.174951033925
183 1 1 1.0 -2.5 -1.784475135392 -0.058317011308
184 1 1 1.0 -2.5 -1.784475135392 0.058317011308
185 1 1 1.0 -2.5 -1.784475135392 0.174951033925
186 1 1 1.0 -2.5 -1.784475135392 0.291585056542
187 1 1 1.0 -2.5 -1.784475135392 0.408219079159
188 1 1 1.0 -2.5 -1.750805793215 -0.466536090467
189 1 1 1.0 -2.5 -1.750805793215 -0.34990206785
190 1 1 1.0 -2.5 -1.750805793215 -0.233268045233
191 1 1 1.0 -2.5 -1.750805793215 -0.116634022617
192 1 1 1.0 -2.5 -1.750805793215 0.0
193 1 1 1.0 -2.5 -1.750805793215 0.116634022617
194 1 1 1.0 -2.5 -1.750805793215 0.233268045233
195 1 1 1.0 -2.5 -1.750805793215 0.34990206785
196 1 1 1.0 -2.5 -1.750805793215 0.466536090467
197 1 1 1.0 -2.5 -1.717136451038 -0.408219079159
198 1 1 1.0 -2.5 -1.717136451038 -0.291585056542
199 1 1 1.0 -2.5 -1.717136451038 -0.174951033925
200 1 1 1.0 -2.5 -1.717136451038 -0.058317011308
201 1 1 1.0 -2.5 -1.717136451038 0.058317011308
202 1 1 1.0 -2.5 -1.717136451038 0.174951033925
203 1 1 1.0 -2.5 -1.717136451038 0.291585056542
204 1 1 1.0 -2.5 -1.717136451038 0.408219079159
205 1 1 1.0 -2.5 -1.683467108861 -0.466536090467
206 1 1 1.0 -2.5 -1.683467108861 -0.34990206785
207 1 1 1.0 -2.5 -1.683467108861 -0.233268045233
208 1 1 1.0 -2.5 -1.683467108861 -0.116634022617
209 1 1 1.0 -2.5 -1.683467108861 0.0
210 1 1 1.0 -2.5 -1.683467108861 0.116634022617
211 1 1 1.0 -2.5 -1.683467108861 0.233268045233
212 1 1 1.0 -2.5 -1.683467108861 0.34990206785
213 1 1 1.0 -2.5 -1.683467108861 0.466536090467
214 1 1 1.0 -2.5 -1.649797766684 -0.408219079159
215 1 1 1.0 -2.5 -1.649797766684 -0.291585056542
216 1 1 1.0 -2.5 -1.649797766684 -0.174951033925
217 1 1 1.0 -2.5 -1.649797766684 -0.058317011308
218 1 1 1.0 -2.5 -1.649797766684 0.058317011308
219 1 1 1.0 -2.5 -1.649797766684 0.174951033925
220 1 1 1.0 -2.5 -1.649797766684 0.291585056542
221 1 1 1.0 -2.5 -1.649797766684 0.408219079159
222 1 1 1.0 -2.5 -1.616128424506 -0.466536090467
223 1 1 1.0 -2.5 -1.616128424506 -0.34990206785
224 1 1 1.0 -2.5 -1.616128424506 -0.233268045233
225 1 1 1.0 -2.5 -1.616128424506 -0.116634022617
226 1 1 1.0 -2.5 -1.616128424506 0.0
227 1 1 1.0 -2.5 -1.616128424506 0.116634022617
228 1 1 1.0 -2.5 -1.616128424506 0.233268045233
229 1 1 1.0 -2.5 -1.616128424506 0.34990206785
230 1 1 1.0 -2.5 -1.616128424506 0.466536090467
231 1 1 1.0 -2.5 -1.582459082329 -0.408219079159
232 1 1 1.0 -2.5 -1.582459082329 -0.291585056542
233 1 1 1.0 -2.5 -1.582459082329 -0.174951033925
234 1 1 1.0 -2.5 -1.582459082329 -0.058317011308
235 1 1 1.0 -2.5 -1.582459082329 0.058317011308
236 1 1 1.0 -2.5 -1.582459082329 0.174951033925
237 1 1 1.0 -2.5 -1.582459082329 0.291585056542
238 1 1 1.0 -2.5 -1.582459082329 0.408219079159
239 1 1 1.0 -2.5 -1.548789740152 -0.466536090467
240 1 1 1.0 -2.5 -1.548789740152 -0.34990206785
241 1 1 1.0 -2.5 -1.548789740152 -0.233268045233
242 1 1 1.0 -2.5 -1.548789740152 -0.116634022617
243 1 1 1.0 -2.5 -1.548789740152 0.0
244 1 1 1.0 -2.5 -1.548789740152 0.116634022617
245 1 1 1.0 -2.5 -1.548789740152 0.233268045233
246 1 1 1.0 -2.5 -1.548789740152 0.34990206785
247 1 1 1.0 -2.5 -1.548789740152 0.466536090467
248 1 1 1.0 -2.5 -1.515120397975 -0.408219079159
249 1 1 1.0 -2.5 -1.515120397975 -0.291585056542
250 1 1 1.0 -2.5 -1.515120397975 -0.174951033925
251 1 1 1.0 -2.5 -1.515120397975 -0.058317011308
252 1 1 1.0 -2.5 -1.515120397975 0.058317011308
253 1 1 1.0 -2.5 -1.515120397975 0.174951033925
254 1 1 1.0 -2.5 -1.515120397975 0.291585056542
255 1 1 1.0 -2.5 -1.515120397975 0.408219079159
256 1 1 1.0 -2.5 -1.481451055797 -0.466536090467
257 1 1 1.0 -2.5 -1.481451055797 -0.34990206785
258 1 1 1.0 -2.5 -1.481451055797 -0.233268045233
259 1 1 1.0 -2.5 -1.481451055797 -0.116634022617
260 1 1 1.0 -2.5 -1.481451055797 0.0
261 1 1 1.0 -2.5 -1.481451055797 0.116634022617
262 1 1 1.0 -2.5 -1.481451055797 0.233268045233
263 1 1 1.0 -2.5 -1.481451055797 0.34990206785
264 1 1 1.0 -2.5 -1.481451055797 0.466536090467
265 1 1 1.0 -2.5 -1.44778171362 -0.408219079159
266 1 1 1.0 -2.5 -1.44778171362 -0.291585056542
267 1 1 1.0 -2.5 -1.44778171362 -0.174951033925
268 1 1 1.0 -2.5 -1.44778171362 -0.058317011308
269 1 1 1.0 -2.5 -1.44778171362 0.058317011308
270 1 1 1.0 -2.5 -1.44778171362 0.174951033925
271 1 1 1.0 -2.5 -1.44778171362 0.291585056542
272 1 1 1.0 -2.5 -1.44778171362 0.408219079159
273 1 1 1.0 -2.5 -1.414112371443 -0.466536090467
274 1 1 1.0 -2.5 -1.414112371443 -0.34990206785
275 1 1 1.0 -2.5 -1.414112371443 -0.233268045233
276 1 1 1.0 -2.5 -1.414112371443 -0.116634022617
277 1 1 1.0 -2.5 -1.414112371443 0.0
278 1 1 1.0 -2.5 -1.414112371443 0.116634022617
279 1 1 1.0 -2.5 -1.414112371443 0.233268045233
280 1 1 1.0 -2.5 -1.414112371443 0.34990206785
281 1 1 1.0 -2.5 -1.414112371443 0.466536090467
282 1 1 1.0 -2.5 -1.380443029266 -0.408219079159
283 1 1 1.0 -2.5 -1.380443029266 -0.291585056542
284 1 1 1.0 -2.5 -1.380443029266 -0.174951033925
285 1 1 1.0 -2.5 -1.380443029266 -0.058317011308
286 1 1 1.0 -2.5 -1.380443029266 0.058317011308
287 1 1 1.0 -2.5 -1.380443029266 0.174951033925
288 1 1 1.0 -2.5 -1.380443029266 0.291585056542
289 1 1 1.0 -2.5 -1.380443029266 0.408219079159
290 1 1 1.0 -2.5 -1.346773687089 -0.466536090467
291 1 1 1.0 -2.5 -1.346773687089 -0.34990206785
292 1 1 1.0 -2.5 -1.346773687089 -0.233268045233
293 1 1 1.0 -2.5 -1.346773687089 -0.116634022617
294 1 1 1.0 -2.5 -1.346773687089 0.0
295 1 1 1.0 -2.5 -1.346773687089 0.116634022617
296 1 1 1.0 -2.5 -1.346773687089 0.233268045233
297 1 1 1.0 -2.5 -1.346773687089 0.34990206785
298 1 1 1.0 -2.5 -1.346773687089 0.466536090467
299 1 1 1.0 -2.5 -1.313104344911 -0.408219079159
300 1 1 1.0 -2.5 -1.313104344911 -0.291585056542
301 1 1 1.0 -2.5 -1.313104344911 -0.174951033925
302 1 1 1.0 -2.5 -1.313104344911 -0.058317011308
303 1 1 1.0 -2.5 -1.313104344911 0.058317011308
304 1 1 1.0 -2.5 -1.313104344911 0.174951033925
305 1 1 1.0 -2.5 -1.313104344911 0.291585056542
306 1 1 1.0 -2.5 -1.313104344911 0.408219079159
307 1 1 1.0 -2.5 -1.279435002734 -0.466536090467
308 1 1 1.0 -2.5 -1.279435002734 -0.34990206785
309 1 1 1.0 -2.5 -1.279435002734 -0.233268045233
310 1 1 1.0 -2.5 -1.279435002734 -0.116634022617
311 1 1 1.0 -2.5 -1.279435002734 0.0
312 1 1 1.0 -2.5 -1.279435002734 0.116634022617
313 1 1 1.0 -2.5 -1.279435002734 0.233268045233
314 1 1 1.0 -2.5 -1.279435002734 0.34990206785
315 1 1 1.0 -2.5 -1.279435002734 0.466536090467
316 1 1 1.0 -2.5 -1.245765660557 -0.408219079159
317 1 1 1.0 -2.5 -1.245765660557 -0.291585056542
318 1 1 1.0 -2.5 -1.245765660557 -0.174951033925
319 1 1 1.0 -2.5 -1.245765660557 -0.058317011308
320 1 1 1.0 -2.5 -1.245765660557 0.058317011308
321 1 1 1.0 -2.5 -1.245765660557 0.174951033925
322 1 1 1.0 -2.5 -1.245765660557 0.291585056542
323 1 1 1.0 -2.5 -1.245765660557 0.408219079159
324 1 1 1.0 -2.5 -1.21209631838 -0.466536090467
325 1 1 1.0 -2.5 -1.21209631838 -0.34990206785
326 1 1 1.0 -2.5 -1.21209631838 -0.233268045233
327 1 1 1.0 -2.5 -1.21209631838 -0.116634022617
328 1 1 1.0 -2.5 -1.21209631838 0.0
329 1 1 1.0 -2.5 -1.21209631838 0.116634022617
330 1 1 1.0 -2.5 -1.21209631838 0.233268045233
331 1 1 1.0 -2.5 -1.21209631838 0.34990206785
332 1 1 1.0 -2.5 -1.21209631838 0.466536090467
333 1 1 1.0 -2.5 -1.178426976203 -0.408219079159
334 1 1 1.0 -2.5 -1.178426976203 -0.291585056542
335 1 1 1.0 -2.5 -1.178426976203 -0.174951033925
336 1 1 1.0 -2.5 -1.178426976203 -0.058317011308
337 1 1 1.0 -2.5 -1.178426976203 0.058317011308
338 1 1 1.0 -2.5 -1.178426976203 0.174951033925
339 1 1 1.0 -2.5 -1.178426976203 0.291585056542
340 1 1 1.0 -2.5 -1.178426976203 0.408219079159
341 1 1 1.0 -2.5 -1.144757634025 -0.466536090467
342 1 1 1.0 -2.5 -1.144757634025 -0.34990206785
343 1 1 1.0 -2.5 -1.144757634025 -0.233268045233
344 1 1 1.0 -2.5 -1.144757634025 -0.116634022617
345 1 1 1.0 -2.5 -1.144757634025 0.0
346 1 1 1.0 -2.5 -1.144757634025 0.116634022617
347 1 1 1.0 -2.5 -1.144757634025 0.233268045233
348 1 1 1.0 -2.5 -1.144757634025 0.34990206785
349 1 1 1.0 -2.5 -1.144757634025 0.466536090467
350 1 1 1.0 -2.5 -1.111088291848 -0.408219079159
351 1 1 1.0 -2.5 -1.111088291848 -0.291585056542
352 1 1 1.0 -2.5 -1.111088291848 -0.174951033925
353 1 1 1.0 -2.5 -1.111088291848 -0.058317011308
354 1 1 1.0 -2.5 -1.111088291848 0.058317011308
355 1 1 1.0 -2.5 -1.111088291848 0.174951033925
356 1 1 1.0 -2.5 -1.111088291848 0.291585056542
357 1 1 1.0 -2.5 -1.111088291848 0.408219079159
358 1 1 1.0 -2.5 -1.077418949671 -0.466536090467
359 1 1 1.0 -2.5 -1.077418949671 -0.34990206785
360 1 1 1.0 -2.5 -1.077418949671 -0.233268045233
361 1 1 1.0 -2.5 -1.077418949671 -0.116634022617
362 1 1 1.0 -2.5 -1.077418949671 0.0
363 1 1 1.0 -2.5 -1.077418949671 0.116634022617
364 1 1 1.0 -2.5 -1.077418949671 0.233268045233
365 1 1 1.0 -2.5 -1.077418949671 0.34990206785
366 1 1 1.0 -2.5 -1.077418949671 0.466536090467
367 1 1 1.0 -2.5 -1.043749607494 -0.408219079159
368 1 1 1.0 -2.5 -1.043749607494 -0.291585056542
369 1 1 1.0 -2.5 -1.043749607494 -0.174951033925
370 1 1 1.0 -2.5 -1.043749607494 -0.058317011308
371 1 1 1.0 -2.5 -1.043749607494 0.058317011308
372 1 1 1.0 -2.5 -1.043749607494 0.174951033925
373 1 1 1.0 -2.5 -1.043749607494 0.291585056542
374 1 1 1.0 -2.5 -1.043749607494 0.408219079159
375 1 1 1.0 -2.5 -1.010080265316 -0.466536090467
376 1 1 1.0 -2.5 -1.010080265316 -0.34990206785
377 1 1 1.0 -2.5 -1.010080265316 -0.233268045233
378 1 1 1.0 -2.5 -1.010080265316 -0.116634022617
379 1 1 1.0 -2.5 -1.010080265316 0.0
380 1 1 1.0 -2.5 -1.010080265316 0.116634022617
381 1 1 1.0 -2.5 -1.010080265316 0.233268045233
382 1 1 1.0 -2.5 -1.010080265316 0.34990206785
383 1 1 1.0 -2.5 -1.010080265316 0.466536090467
384 1 1 1.0 -2.5 -0.976410923139 -0.408219079159
385 1 1 1.0 -2.5 -0.976410923139 -0.291585056542
386 1 1 1.0 -2.5 -0.976410923139 -0.174951033925
387 1 1 1.0 -2.5 -0.976410923139 -0.058317011308
388 1 1 1.0 -2.5 -0.976410923139 0.058317011308
389 1 1 1.0 -2.5 -0.976410923139 0.174951033925
390 1 1 1.0 -2.5 -0.976410923139 0.291585056542
391 1 1 1.0 -2.5 -0.976410923139 0.408219079159
392 1 1 1.0 -2.5 -0.942741580962 -0.466536090467
393 1 1 1.0 -2.5 -0.942741580962 -0.34990206785
394 1 1 1.0 -2.5 -0.942741580962 -0.233268045233
395 1 1 1.0 -2.5 -0.942741580962 -0.116634022617
396 1 1 1.0 -2.5 -0.942741580962 0.0
397 1 1 1.0 -2.5 -0.942741580962 0.116634022617
398 1 1 1.0 -2.5 -0.942741580962 0.233268045233
399 1 1 1.0 -2.5 -0.942741580962 0.34990206785
400 1 1 1.0 -2.5 -0.942741580962 0.466536090467
401 1 1 1.0 -2.5 -0.909072238785 -0.408219079159
402 1 1 1.0 -2.5 -0.909072238785 -0.291585056542
403 1 1 1.0 -2.5 -0.909072238785 -0.174951033925
404 1 1 1.0 -2.5 -0.909072238785 -0.058317011308
405 1 1 1.0 -2.5 -0.909072238785 0.058317011308
406 1 1 1.0 -2.5 -0.909072238785 0.174951033925
407 1 1 1.0 -2.5 -0.909072238785 0.291585056542
408 1 1 1.0 -2.5 -0.909072238785 0.408219079159
409 1 1 1.0 -2.5 -0.875402896608 -0.466536090467
410 1 1 1.0 -2.5 -0.875402896608 -0.34990206785
411 1 1 1.0 -2.5 -0.875402896608 -0.233268045233
412 1 1 1.0 -2.5 -0.875402896608 -0.116634022617
413 1 1 1.0 -2.5 -0.875402896608 0.0
414 1 1 1.0 -2.5 -0.875402896608 0.116634022617
415 1 1 1.0 -2.5 -0.875402896608 0.233268045233
416 1 1 1.0 -2.5 -0.875402896608 0.34990206785
417 1 1 1.0 -2.5 -0.875402896608 0.466536090467
418 1 1 1.0 -2.5 -0.84173355443 -0.408219079159
419 1 1 1.0 -2.5 -0.84173355443 -0.291585056542
420 1 1 1.0 -2.5 -0.84173355443 -0.174951033925
421 1 1 1.0 -2.5 -0.84173355443 -0.058317011308
422 1 1 1.0 -2.5 -0.84173355443 0.058317011308
423 1 1 1.0 -2.5 -0.84173355443 0.174951033925
424 1 1 1.0 -2.5 -0.84173355443 0.291585056542
425 1 1 1.0 -2.5 -0.84173355443 0.408219079159
426 1 1 1.0 -2.5 -0.808064212253 -0.466536090467
427 1 1 1.0 -2.5 -0.808064212253 -0.34990206785
428 1 1 1.0 -2.5 -0.808064212253 -0.233268045233
429 1 1 1.0 -2.5 -0.808064212253 -0.116634022617
430 1 1 1.0 -2.5 -0.808064212253 0.0
431 1 1 1.0 -2.5 -0.808064212253 0.116634022617
432 1 1 1.0 -2.5 -0.808064212253 0.233268045233
433 1 1 1.0 -2.5 -0.808064212253 0.34990206785
434 1 1 1.0 -2.5 -0.808064212253 0.466536090467
435 1 1 1.0 -2.5 -0.774394870076 -0.408219079159
436 1 1 1.0 -2.5 -0.774394870076 -0.291585056542
437 1 1 1.0 -2.5 -0.774394870076 -0.174951033925
438 1 1 1.0 -2.5 -0.774394870076 -0.058317011308
439 1 1 1.0 -2.5 -0.774394870076 0.058317011308
440 1 1 1.0 -2.5 -0.774394870076 0.174951033925
441 1 1 1.0 -2.5 -0.774394870076 0.291585056542
442 1 1 1.0 -2.5 -0.774394870076 0.408219079159
443 1 1 1.0 -2.5 -0.740725527899 -0.466536090467
444 1 1 1.0 -2.5 -0.740725527899 -0.34990206785
445 1 1 1.0 -2.5 -0.740725527899 -0.233268045233
446 1 1 1.0 -2.5 -0.740725527899 -0.116634022617
447 1 1 1.0 -2.5 -0.740725527899 0.0
448 1 1 1.0 -2.5 -0.740725527899 0.116634022617
449 1 1 1.0 -2.5 -0.740725527899 0.233268045233
450 1 1 1.0 -2.5 -0.740725527899 0.34990206785
451 1 1 1.0 -2.5 -0.740725527899 0.466536090467
452 1 1 1.0 -2.5 -0.707056185722 -0.408219079159
453 1 1 1.0 -2.5 -0.707056185722 -0.291585056542
454 1 1 1.0 -2.5 -0.707056185722 -0.174951033925
455 1 1 1.0 -2.5 -0.707056185722 -0.058317011308
456 1 1 1.0 -2.5 -0.707056185722 0.058317011308
457 1 1 1.0 -2.5 -0.707056185722 0.174951033925
458 1 1 1.0 -2.5 -0.707056185722 0.291585056542
459 1 1 1.0 -2.5 -0.707056185722 0.408219079159
460 1 1 1.0 -2.5 -0.673386843544 -0.466536090467
461 1 1 1.0 -2.5 -0.673386843544 -0.34990206785
462 1 1 1.0 -2.5 -0.673386843544 -0.233268045233
463 1 1 1.0 -2.5 -0.673386843544 -0.116634022617
464 1 1 1.0 -2.5 -0.673386843544 0.0
465 1 1 1.0 -2.5 -0.673386843544 0.116634022617
466 1 1 1.0 -2.5 -0.673386843544 0.233268045233
467 1 1 1.0 -2.5 -0.673386843544 0.34990206785
468 1 1 1.0 -2.5 -0.673386843544 0.466536090467
469 1 1 1.0 -2.5 -0.639717501367 -0.408219079159
470 1 1 1.0 -2.5 -0.639717501367 -0.291585056542
471 1 1 1.0 -2.5 -0.639717501367 -0.174951033925
472 1 1 1.0 -2.5 -0.639717501367 -0.058317011308
473 1 1 1.0 -2.5 -0.639717501367 0.058317011308
474 1 1 1.0 -2.5 -0.639717501367 0.174951033925
475 1 1 1.0 -2.5 -0.639717501367 0.291585056542
476 1 1 1.0 -2.5 -0.639717501367 0.408219079159
477 1 1 1.0 -2.5 -0.60604815919 -0.466536090467
478 1 1 1.0 -2.5 -0.60604815919 -0.34990206785
479 1 1 1.0 -2.5 -0.60604815919 -0.233268045233
480 1 1 1.0 -2.5 -0.60604815919 -0.116634022617
481 1 1 1.0 -2.5 -0.60604815919 0.0
482 1 1 1.0 -2.5 -0.60604815919 0.116634022617
483 1 1 1.0 -2.5 -0.60604815919 0.233268045233
484 1 1 1.0 -2.5 -0.60604815919 0.34990206785
485 1 1 1.0 -2.5 -0.60604815919 0.466536090467
486 1 1 1.0 -2.5 -0.572378817013 -0.408219079159
487 1 1 1.0 -2.5 -0.572378817013 -0.291585056542
488 1 1 1.0 -2.5 -0.572378817013 -0.174951033925
489 1 1 1.0 -2.5 -0.572378817013 -0.058317011308
490 1 1 1.0 -2.5 -0.572378817013 0.058317011308
491 1 1 1.0 -2.5 -0.572378817013 0.174951033925
492 1 1 1.0 -2.5 -0.572378817013 0.291585056542
493 1 1 1.0 -2.5 -0.572378817013 0.408219079159
494 1 1 1.0 -2.5 -0.538709474835 -0.466536090467
495 1 1 1.0 -2.5 -0.538709474835 -0.34990206785
496 1 1 1.0 -2.5 -0.538709474835 -0.233268045233
497 1 1 1.0 -2.5 -0.538709474835 -0.116634022617
498 1 1 1.0 -2.5 -0.538709474835 0.0
499 1 1 1.0 -2.5 -0.538709474835 0.116634022617
500 1 1 1.0 -2.5 -0.538709474835 0.233268045233
501 1 1 1.0 -2.5 -0.538709474835 0.34990206785
502 1 1 1.0 -2.5 -0.538709474835 0.466536090467
503 1 1 1.0 -2.5 -0.505040132658 -0.408219079159
504 1 1 1.0 -2.5 -0.505040132658 -0.291585056542
505 1 1 1.0 -2.5 -0.505040132658 -0.174951033925
506 1 1 1.0 -2.5 -0.505040132658 -0.058317011308
507 1 1 1.0 -2.5 -0.505040132658 0.058317011308
508 1 1 1.0 -2.5 -0.505040132658 0.174951033925
509 1 1 1.0 -2.5 -0.505040132658 0.291585056542
510 1 1 1.0 -2.5 -0.505040132658 0.408219079159
511 1 1 1.0 -2.5 -0.471370790481 -0.466536090467
512 1 1 1.0 -2.5 -0.471370790481 -0.34990206785
513 1 1 1.0 -2.5 -0.471370790481 -0.233268045233
514 1 1 1.0 -2.5 -0.471370790481 -0.116634022617
515 1 1 1.0 -2.5 -0.471370790481 0.0
516 1 1 1.0 -2.5 -0.471370790481 0.116634022617
517 1 1 1.0 -2.5 -0.471370790481 0.233268045233
518 1 1 1.0 -2.5 -0.471370790481 0.34990206785
519 1 1 1.0 -2.5 -0.471370790481 0.466536090467
520 1 1 1.0 -2.5 -0.437701448304 -0.408219079159
521 1 1 1.0 -2.5 -0.437701448304 -0.291585056542
522 1 1 1.0 -2.5 -0.437701448304 -0.174951033925
523 1 1 1.0 -2.5 -0.437701448304 -0.058317011308
524 1 1 1.0 -2.5 -0.437701448304 0.058317011308
525 1 1 1.0 -2.5 -0.437701448304 0.174951033925
526 1 1 1.0 -2.5 -0.437701448304 0.291585056542
527 1 1 1.0 -2.5 -0.437701448304 0.408219079159
528 1 1 1.0 -2.5 -0.404032106127 -0.466536090467
529 1 1 1.0 -2.5 -0.404032106127 -0.34990206785
530 1 1 1.0 -2.5 -0.404032106127 -0.233268045233
531 1 1 1.0 -2.5 -0.404032106127 -0.116634022617
532 1 1 1.0 -2.5 -0.404032106127 0.0
533 1 1 1.0 -2.5 -0.404032106127 0.116634022617
534 1 1 1.0 -2.5 -0.404032106127 0.233268045233
535 1 1 1.0 -2.5 -0.404032106127 0.34990206785
536 1 1 1.0 -2.5 -0.404032106127 0.466536090467
537 1 1 1.0 -2.5 -0.370362763949 -0.408219079159
538 1 1 1.0 -2.5 -0.370362763949 -0.291585056542
539 1 1 1.0 -2.5 -0.370362763949 -0.174951033925
540 1 1 1.0 -2.5 -0.370362763949 -0.058317011308
541 1 1 1.0 -2.5 -0.370362763949 0.058317011308
542 1 1 1.0 -2.5 -0.370362763949 0.174951033925
543 1 1 1.0 -2.5 -0.370362763949 0.291585056542
544 1 1 1.0 -2.5 -0.370362763949 0.408219079159
545 1 1 1.0 -2.5 -0.336693421772 -0.466536090467
546 1 1 1.0 -2.5 -0.336693421772 -0.34990206785
547 1 1 1.0 -2.5 -0.336693421772 -0.233268045233
548 1 1 1.0 -2.5 -0.336693421772 -0.116634022617
549 1 1 1.0 -2.5 -0.336693421772 0.0
550 1 1 1.0 -2.5 -0.336693421772 0.116634022617
551 1 1 1.0 -2.5 -0.336693421772 0.233268045233
552 1 1 1.0 -2.5 -0.336693421772 0.34990206785
553 1 1 1.0 -2.5 -0.336693421772 0.466536090467
554 1 1 1.0 -2.5 -0.303024079595 -0.408219079159
555 1 1 1.0 -2.5 -0.303024079595 -0.291585056542
556 1 1 1.0 -2.5 -0.303024079595 -0.174951033925
557 1 1 1.0 -2.5 -0.303024079595 -0.058317011308
558 1 1 1.0 -2.5 -0.303024079595 0.058317011308
559 1 1 1.0 -2.5 -0.303024079595 0.174951033925
560 1 1 1.0 -2.5 -0.303024079595 0.291585056542
561 1 1 1.0 -2.5 -0.303024079595 0.408219079159
562 1 1 1.0 -2.5 -0.269354737418 -0.466536090467
563 1 1 1.0 -2.5 -0.269354737418 -0.34990206785
564 1 1 1.0 -2.5 -0.269354737418 -0.233268045233
565 1 1 1.0 -2.5 -0.269354737418 -0.116634022617
566 1 1 1.0 -2.5 -0.269354737418 0.0
567 1 1 1.0 -2.5 -0.269354737418 0.116634022617
568 1 1 1.0 -2.5 -0.269354737418 0.233268045233
569 1 1 1.0 -2.5 -0.269354737418 0.34990206785
570 1 1 1.0 -2.5 -0.269354737418 0.466536090467
571 1 1 1.0 -2.5 -0.235685395241 -0.408219079159
572 1 1 1.0 -2.5 -0.235685395241 -0.291585056542
573 1 1 1.0 -2.5 -0.235685395241 -0.174951033925
574 1 1 1.0 -2.5 -0.235685395241 -0.058317011308
575 1 1 1.0 -2.5 -0.235685395241 0.058317011308
576 1 1 1.0 -2.5 -0.235685395241 0.174951033925
577 1 1 1.0 -2.5 -0.235685395241 0.291585056542
578 1 1 1.0 -2.5 -0.235685395241 0.408219079159
579 1 1 1.0 -2.5 -0.202016053063 -0.466536090467
580 1 1 1.0 -2.5 -0.202016053063 -0.34990206785
581 1 1 1.0 -2.5 -0.202016053063 -0.233268045233
582 1 1 1.0 -2.5 -0.202016053063 -0.116634022617
583 1 1 1.0 -2.5 -0.202016053063 0.0
584 1 1 1.0 -2.5 -0.202016053063 0.116634022617
585 1 1 1.0 -2.5 -0.202016053063 0.233268045233
586 1 1 1.0 -2.5 -0.202016053063 0.34990206785
587 1 1 1.0 -2.5 -0.202016053063 0.466536090467
588 1 1 1.0 -2.5 -0.168346710886 -0.408219079159
589 1 1 1.0 -2.5 -0.168346710886 -0.291585056542
590 1 1 1.0 -2.5 -0.168346710886 -0.174951033925
591 1 1 1.0 -2.5 -0.168346710886 -0.058317011308
592 1 1 1.0 -2.5 -0.168346710886 0.058317011308
593 1 1 1.0 -2.5 -0.168346710886 0.174951033925
594 1 1 1.0 -2.5 -0.168346710886 0.291585056542
595 1 1 1.0 -2.5 -0.168346710886 0.408219079159
596 1 1 1.0 -2.5 -0.134677368709 -0.466536090467
597 1 1 1.0 -2.5 -0.134677368709 -0.34990206785
598 1 1 1.0 -2.5 -0.134677368709 -0.233268045233
599 1 1 1.0 -2.5 -0.134677368709 -0.116634022617
600 1 1 1.0 -2.5 -0.134677368709 0.0
601 1 1 1.0 -2.5 -0.134677368709 0.116634022617
602 1 1 1.0 -2.5 -0.134677368709 0.233268045233
603 1 1 1.0 -2.5 -0.134677368709 0.34990206785
604 1 1 1.0 -2.5 -0.134677368709 0.466536090467
605 1 1 1.0 -2.5 -0.101008026532 -0.408219079159
606 1 1 1.0 -2.5 -0.101008026532 -0.291585056542
607 1 1 1.0 -2.5 -0.101008026532 -0.174951033925
608 1 1 1.0 -2.5 -0.101008026532 -0.058317011308
609 1 1 1.0 -2.5 -0.101008026532 0.058317011308
610 1 1 1.0 -2.5 -0.101008026532 0.174951033925
611 1 1 1.0 -2.5 -0.101008026532 0.291585056542
612 1 1 1.0 -2.5 -0.101008026532 0.408219079159
613 1 1 1.0 -2.5 -0.067338684354 -0.466536090467
614 1 1 1.0 -2.5 -0.067338684354 -0.34990206785
615 1 1 1.0 -2.5 -0.067338684354 -0.233268045233
616 1 1 1.0 -2.5 -0.067338684354 -0.116634022617
617 1 1 1.0 -2.5 -0.067338684354 0.0
618 1 1 1.0 -2.5 -0.067338684354 0.116634022617
619 1 1 1.0 -2.5 -0.067338684354 0.233268045233
620 1 1 1.0 -2.5 -0.067338684354 0.34990206785
621 1 1 1.0 -2.5 -0.067338684354 0.466536090467
622 1 1 1.0 -2.5 -0.033669342177 -0.408219079159
623 1 1 1.0 -2.5 -0.033669342177 -0.291585056542
624 1 1 1.0 -2.5 -0.033669342177 -0.174951033925
625 1 1 1.0 -2.5 -0.033669342177 -0.058317011308
626 1 1 1.0 -2.5 -0.033669342177 0.058317011308
627 1 1 1.0 -2.5 -0.033669342177 0.174951033925
628 1 1 1.0 -2.5 -0.033669342177 0.291585056542