# Generated using make_nodes_plate.py (hexagonal lattice sampling)

4574 atoms
 1 atom types

-2.5 2.5 xlo xhi
-2.5 2.5 ylo yhi
-0.5 0.5 zlo zhi

Atoms

1 1 1 1.0 -2.5 -2.491531321114 -0.34990206785
2 1 1 1.0 -2.5 -2.491531321114 -0.116634022617
3 1 1 1.0 -2.5 -2.491531321114 0.116634022617
4 1 1 1.0 -2.5 -2.491531321114 0.34990206785
5 1 1 1.0 -2.5 -2.424192636759 -0.466536090467
6 1 1 1.0 -2.5 -2.424192636759 -0.233268045233
7 1 1 1.0 -2.5 -2.424192636759 0.0
8 1 1 1.0 -2.5 -2.424192636759 0.233268045233
9 1 1 1.0 -2.5 -2.424192636759 0.466536090467
10 1 1 1.0 -2.5 -2.356853952405 -0.34990206785
11 1 1 1.0 -2.5 -2.356853952405 -0.116634022617
12 1 1 1.0 -2.5 -2.356853952405 0.116634022617
13 1 1 1.0 -2.5 -2.356853952405 0.34990206785
14 1 1 1.0 -2.5 -2.289515268051 -0.466536090467
15 1 1 1.0 -2.5 -2.289515268051 -0.233268045233
16 1 1 1.0 -2.5 -2.289515268051 0.0
17 1 1 1.0 -2.5 -2.289515268051 0.233268045233
18 1 1 1.0 -2.5 -2.289515268051 0.466536090467
19 1 1 1.0 -2.5 -2.222176583696 -0.34990206785
20 1 1 1.0 -2.5 -2.222176583696 -0.116634022617
21 1 1 1.0 -2.5 -2.222176583696 0.116634022617
22 1 1 1.0 -2.5 -2.222176583696 0.34990206785
23 1 1 1.0 -2.5 -2.154837899342 -0.466536090467
24 1 1 1.0 -2.5 -2.154837899342 -0.233268045233
25 1 1 1.0 -2.5 -2.154837899342 0.0
26 1 1 1.0 -2.5 -2.154837899342 0.233268045233
27 1 1 1.0 -2.5 -2.154837899342 0.466536090467
28 1 1 1.0 -2.5 -2.087499214987 -0.34990206785
29 1 1 1.0 -2.5 -2.087499214987 -0.116634022617
30 1 1 1.0 -2.5 -2.087499214987 0.116634022617
31 1 1 1.0 -2.5 -2.087499214987 0.34990206785
32 1 1 1.0 -2.5 -2.020160530633 -0.466536090467
33 1 1 1.0 -2.5 -2.020160530633 -0.233268045233
34 1 1 1.0 -2.5 -2.020160530633 0.0
35 1 1 1.0 -2.5 -2.020160530633 0.233268045233
36 1 1 1.0 -2.5 -2.020160530633 0.466536090467
37 1 1 1.0 -2.5 -1.952821846278 -0.34990206785
38 1 1 1.0 -2.5 -1.952821846278 -0.116634022617
39 1 1 1.0 -2.5 -1.952821846278 0.116634022617
40 1 1 1.0 -2.5 -1.952821846278 0.34990206785
41 1 1 1.0 -2.5 -1.885483161924 -0.466536090467
42 1 1 1.0 -2.5 -1.885483161924 -0.233268045233
43 1 1 1.0 -2.5 -1.885483161924 0.0
44 1 1 1.0 -2.5 -1.885483161924 0.233268045233
45 1 1 1.0 -2.5 -1.885483161924 0.466536090467
46 1 1 1.0 -2.5 -1.81814447757 -0.34990206785
47 1 1 1.0 -2.5 -1.81814447757 -0.116634022617
48 1 1 1.0 -2.5 -1.81814447757 0.116634022617
49 1 1 1.0 -2.5 -1.81814447757 0.34990206785
50 1 1 1.0 -2.5 -1.750805793215 -0.466536090467
51 1 1 1.0 -2.5 -1.750805793215 -0.233268045233
52 1 1 1.0 -2.5 -1.750805793215 0.0
53 1 1 1.0 -2.5 -1.750805793215 0.233268045233
54 1 1 1.0 -2.5 -1.750805793215 0.466536090467
55 1 1 1.0 -2.5 -1.683467108861 -0.34990206785
56 1 1 1.0 -2.5 -1.683467108861 -0.116634022617
57 1 1 1.0 -2.5 -1.683467108861 0.116634022617
58 1 1 1.0 -2.5 -1.683467108861 0.34990206785
59 1 1 1.0 -2.5 -1.616128424506 -0.466536090467
60 1 1 1.0 -2.5 -1.616128424506 -0.233268045233
61 1 1 1.0 -2.5 -1.616128424506 0.0
62 1 1 1.0 -2.5 -1.616128424506 0.233268045233
63 1 1 1.0 -2.5 -1.616128424506 0.466536090467
64 1 1 1.0 -2.5 -1.548789740152 -0.34990206785
65 1 1 1.0 -2.5 -1.548789740152 -0.116634022617
66 1 1 1.0 -2.5 -1.548789740152 0.116634022617
67 1 1 1.0 -2.5 -1.548789740152 0.34990206785
68 1 1 1.0 -2.5 -1.481451055797 -0.466536090467
69 1 1 1.0 -2.5 -1.481451055797 -0.233268045233
70 1 1 1.0 -2.5 -1.481451055797 0.0
71 1 1 1.0 -2.5 -1.481451055797 0.233268045233
72 1 1 1.0 -2.5 -1.481451055797 0.466536090467
73 1 1 1.0 -2.5 -1.414112371443 -0.34990206785
74 1 1 1.0 -2.5 -1.414112371443 -0.116634022617
75 1 1 1.0 -2.5 -1.414112371443 0.116634022617
76 1 1 1.0 -2.5 -1.414112371443 0.34990206785
77 1 1 1.0 -2.5 -1.346773687089 -0.466536090467
78 1 1 1.0 -2.5 -1.346773687089 -0.233268045233
79 1 1 1.0 -2.5 -1.346773687089 0.0
80 1 1 1.0 -2.5 -1.346773687089 0.233268045233
81 1 1 1.0 -2.5 -1.346773687089 0.466536090467
82 1 1 1.0 -2.5 -1.279435002734 -0.34990206785
83 1 1 1.0 -2.5 -1.279435002734 -0.116634022617
84 1 1 1.0 -2.5 -1.279435002734 0.116634022617
85 1 1 1.0 -2.5 -1.279435002734 0.34990206785
86 1 1 1.0 -2.5 -1.21209631838 -0.466536090467
87 1 1 1.0 -2.5 -1.21209631838 -0.233268045233
88 1 1 1.0 -2.5 -1.21209631838 0.0
89 1 1 1.0 -2.5 -1.21209631838 0.233268045233
90 1 1 1.0 -2.5 -1.21209631838 0.466536090467
91 1 1 1.0 -2.5 -1.144757634025 -0.34990206785
92 1 1 1.0 -2.5 -1.144757634025 -0.116634022617
93 1 1 1.0 -2.5 -1.144757634025 0.116634022617
94 1 1 1.0 -2.5 -1.144757634025 0.34990206785
95 1 1 1.0 -2.5 -1.077418949671 -0.466536090467
96 1 1 1.0 -2.5 -1.077418949671 -0.233268045233
97 1 1 1.0 -2.5 -1.077418949671 0.0
98 1 1 1.0 -2.5 -1.077418949671 0.233268045233
99 1 1 1.0 -2.5 -1.077418949671 0.466536090467
100 1 1 1.0 -2.5 -1.010080265316 -0.34990206785
101 1 1 1.0 -2.5 -1.010080265316 -0.116634022617
102 1 1 1.0 -2.5 -1.010080265316 0.116634022617
103 1 1 1.0 -2.5 -1.010080265316 0.34990206785
104 1 1 1.0 -2.5 -0.942741580962 -0.466536090467
105 1 1 1.0 -2.5 -0.942741580962 -0.233268045233
106 1 1 1.0 -2.5 -0.942741580962 0.0
107 1 1 1.0 -2.5 -0.942741580962 0.233268045233
108 1 1 1.0 -2.5 -0.942741580962 0.466536090467
109 1 1 1.0 -2.5 -0.875402896608 -0.34990206785
110 1 1 1.0 -2.5 -0.875402896608 -0.116634022617
111 1 1 1.0 -2.5 -0.875402896608 0.116634022617
112 1 1 1.0 -2.5 -0.875402896608 0.34990206785
113 1 1 1.0 -2.5 -0.808064212253 -0.466536090467
114 1 1 1.0 -2.5 -0.808064212253 -0.233268045233
115 1 1 1.0 -2.5 -0.808064212253 0.0
116 1 1 1.0 -2.5 -0.808064212253 0.233268045233
117 1 1 1.0 -2.5 -0.808064212253 0.466536090467
118 1 1 1.0 -2.5 -0.740725527899 -0.34990206785
119 1 1 1.0 -2.5 -0.740725527899 -0.116634022617
120 1 1 1.0 -2.5 -0.740725527899 0.116634022617
121 1 1 1.0 -2.5 -0.740725527899 0.34990206785
122 1 1 1.0 -2.5 -0.673386843544 -0.466536090467
123 1 1 1.0 -2.5 -0.673386843544 -0.233268045233
124 1 1 1.0 -2.5 -0.673386843544 0.0
125 1 1 1.0 -2.5 -0.673386843544 0.233268045233
126 1 1 1.0 -2.5 -0.673386843544 0.466536090467
127 1 1 1.0 -2.5 -0.60604815919 -0.34990206785
128 1 1 1.0 -2.5 -0.60604815919 -0.116634022617
129 1 1 1.0 -2.5 -0.60604815919 0.116634022617
130 1 1 1.0 -2.5 -0.60604815919 0.34990206785
131 1 1 1.0 -2.5 -0.538709474835 -0.466536090467
132 1 1 1.0 -2.5 -0.538709474835 -0.233268045233
133 1 1 1.0 -2.5 -0.538709474835 0.0
134 1 1 1.0 -2.5 -0.538709474835 0.233268045233
135 1 1 1.0 -2.5 -0.538709474835 0.466536090467
136 1 1 1.0 -2.5 -0.471370790481 -0.34990206785
137 1 1 1.0 -2.5 -0.471370790481 -0.116634022617
138 1 1 1.0 -2.5 -0.471370790481 0.116634022617
139 1 1 1.0 -2.5 -0.471370790481 0.34990206785
140 1 1 1.0 -2.5 -0.404032106127 -0.466536090467
141 1 1 1.0 -2.5 -0.404032106127 -0.233268045233
142 1 1 1.0 -2.5 -0.404032106127 0.0
143 1 1 1.0 -2.5 -0.404032106127 0.233268045233
144 1 1 1.0 -2.5 -0.404032106127 0.466536090467
145 1 1 1.0 -2.5 -0.336693421772 -0.34990206785
146 1 1 1.0 -2.5 -0.336693421772 -0.116634022617
147 1 1 1.0 -2.5 -0.336693421772 0.116634022617
148 1 1 1.0 -2.5 -0.336693421772 0.34990206785
149 1 1 1.0 -2.5 -0.269354737418 -0.466536090467
150 1 1 1.0 -2.5 -0.269354737418 -0.233268045233
151 1 1 1.0 -2.5 -0.269354737418 0.0
152 1 1 1.0 -2.5 -0.269354737418 0.233268045233
153 1 1 1.0 -2.5 -0.269354737418 0.466536090467
154 1 1 1.0 -2.5 -0.202016053063 -0.34990206785
155 1 1 1.0 -2.5 -0.202016053063 -0.116634022617
156 1 1 1.0 -2.5 -0.202016053063 0.116634022617
157 1 1 1.0 -2.5 -0.202016053063 0.34990206785
158 1 1 1.0 -2.5 -0.134677368709 -0.466536090467
159 1 1 1.0 -2.5 -0.134677368709 -0.233268045233
160 1 1 1.0 -2.5 -0.134677368709 0.0
161 1 1 1.0 -2.5 -0.134677368709 0.233268045233
162 1 1 1.0 -2.5 -0.134677368709 0.466536090467
163 1 1 1.0 -2.5 -0.067338684354 -0.34990206785
164 1 1 1.0 -2.5 -0.067338684354 -0.116634022617
165 1 1 1.0 -2.5 -0.067338684354 0.116634022617
166 1 1 1.0 -2.5 -0.067338684354 0.34990206785
167 1 1 1.0 -2.5 0.0 -0.466536090467
168 1 1 1.0 -2.5 0.0 -0.233268045233
169 1 1 1.0 -2.5 0.0 0.0
170 1 1 1.0 -2.5 0.0 0.233268045233
171 1 1 1.0 -2.5 0.0 0.466536090467
172 1 1 1.0 -2.5 0.067338684354 -0.34990206785
173 1 1 1.0 -2.5 0.067338684354 -0.116634022617
174 1 1 1.0 -2.5 0.067338684354 0.116634022617
175 1 1 1.0 -2.5 0.067338684354 0.34990206785
176 1 1 1.0 -2.5 0.134677368709 -0.466536090467
177 1 1 1.0 -2.5 0.134677368709 -0.233268045233
178 1 1 1.0 -2.5 0.134677368709 0.0
179 1 1 1.0 -2.5 0.134677368709 0.233268045233
180 1 1 1.0 -2.5 0.134677368709 0.466536090467
181 1 1 1.0 -2.5 0.202016053063 -0.34990206785
182 1 1 1.0 -2.5 0.202016053063 -0.116634022617
183 1 1 1.0 -2.5 0.202016053063 0.116634022617
184 1 1 1.0 -2.5 0.202016053063 0.34990206785
185 1 1 1.0 -2.5 0.269354737418 -0.466536090467
186 1 1 1.0 -2.5 0.269354737418 -0.233268045233
187 1 1 1.0 -2.5 0.269354737418 0.0
188 1 1 1.0 -2.5 0.269354737418 0.233268045233
189 1 1 1.0 -2.5 0.269354737418 0.466536090467
190 1 1 1.0 -2.5 0.336693421772 -0.34990206785
191 1 1 1.0 -2.5 0.336693421772 -0.116634022617
192 1 1 1.0 -2.5 0.336693421772 0.116634022617
193 1 1 1.0 -2.5 0.336693421772 0.34990206785
194 1 1 1.0 -2.5 0.404032106127 -0.466536090467
195 1 1 1.0 -2.5 0.404032106127 -0.233268045233
196 1 1 1.0 -2.5 0.404032106127 0.0
197 1 1 1.0 -2.5 0.404032106127 0.233268045233
198 1 1 1.0 -2.5 0.404032106127 0.466536090467
199 1 1 1.0 -2.5 0.471370790481 -0.34990206785
200 1 1 1.0 -2.5 0.471370790481 -0.116634022617
201 1 1 1.0 -2.5 0.471370790481 0.116634022617
202 1 1 1.0 -2.5 0.471370790481 0.34990206785
203 1 1 1.0 -2.5 0.538709474835 -0.466536090467
204 1 1 1.0 -2.5 0.538709474835 -0.233268045233
205 1 1 1.0 -2.5 0.538709474835 0.0
206 1 1 1.0 -2.5 0.538709474835 0.233268045233
207 1 1 1.0 -2.5 0.538709474835 0.466536090467
208 1 1 1.0 -2.5 0.60604815919 -0.34990206785
209 1 1 1.0 -2.5 0.60604815919 -0.116634022617
210 1 1 1.0 -2.5 0.60604815919 0.116634022617
211 1 1 1.0 -2.5 0.60604815919 0.34990206785
212 1 1 1.0 -2.5 0.673386843544 -0.466536090467
213 1 1 1.0 -2.5 0.673386843544 -0.233268045233
214 1 1 1.0 -2.5 0.673386843544 0.0
215 1 1 1.0 -2.5 0.673386843544 0.233268045233
216 1 1 1.0 -2.5 0.673386843544 0.466536090467
217 1 1 1.0 -2.5 0.740725527899 -0.34990206785
218 1 1 1.0 -2.5 0.740725527899 -0.116634022617
219 1 1 1.0 -2.5 0.740725527899 0.116634022617
220 1 1 1.0 -2.5 0.740725527899 0.34990206785
221 1 1 1.0 -2.5 0.808064212253 -0.466536090467
222 1 1 1.0 -2.5 0.808064212253 -0.233268045233
223 1 1 1.0 -2.5 0.808064212253 0.0
224 1 1 1.0 -2.5 0.808064212253 0.233268045233
225 1 1 1.0 -2.5 0.808064212253 0.466536090467
226 1 1 1.0 -2.5 0.875402896608 -0.34990206785
227 1 1 1.0 -2.5 0.875402896608 -0.116634022617
228 1 1 1.0 -2.5 0.875402896608 0.116634022617
229 1 1 1.0 -2.5 0.875402896608 0.34990206785
230 1 1 1.0 -2.5 0.942741580962 -0.466536090467
231 1 1 1.0 -2.5 0.942741580962 -0.233268045233
232 1 1 1.0 -2.5 0.942741580962 0.0
233 1 1 1.0 -2.5 0.942741580962 0.233268045233
234 1 1 1.0 -2.5 0.942741580962 0.466536090467
235 1 1 1.0 -2.5 1.010080265316 -0.34990206785
236 1 1 1.0 -2.5 1.010080265316 -0.116634022617
237 1 1 1.0 -2.5 1.010080265316 0.116634022617
238 1 1 1.0 -2.5 1.010080265316 0.34990206785
239 1 1 1.0 -2.5 1.077418949671 -0.466536090467
240 1 1 1.0 -2.5 1.077418949671 -0.233268045233
241 1 1 1.0 -2.5 1.077418949671 0.0
242 1 1 1.0 -2.5 1.077418949671 0.233268045233
243 1 1 1.0 -2.5 1.077418949671 0.466536090467
244 1 1 1.0 -2.5 1.144757634025 -0.34990206785
245 1 1 1.0 -2.5 1.144757634025 -0.116634022617
246 1 1 1.0 -2.5 1.144757634025 0.116634022617
247 1 1 1.0 -2.5 1.144757634025 0.34990206785
248 1 1 1.0 -2.5 1.21209631838 -0.466536090467
249 1 1 1.0 -2.5 1.21209631838 -0.233268045233
250 1 1 1.0 -2.5 1.21209631838 0.0
251 1 1 1.0 -2.5 1.21209631838 0.233268045233
252 1 1 1.0 -2.5 1.21209631838 0.466536090467
253 1 1 1.0 -2.5 1.279435002734 -0.34990206785
254 1 1 1.0 -2.5 1.279435002734 -0.116634022617
255 1 1 1.0 -2.5 1.279435002734 0.116634022617
256 1 1 1.0 -2.5 1.279435002734 0.34990206785
257 1 1 1.0 -2.5 1.346773687089 -0.466536090467
258 1 1 1.0 -2.5 1.346773687089 -0.233268045233
259 1 1 1.0 -2.5 1.346773687089 0.0
260 1 1 1.0 -2.5 1.346773687089 0.233268045233
261 1 1 1.0 -2.5 1.346773687089 0.466536090467
262 1 1 1.0 -2.5 1.414112371443 -0.34990206785
263 1 1 1.0 -2.5 1.414112371443 -0.116634022617
264 1 1 1.0 -2.5 1.414112371443 0.116634022617
265 1 1 1.0 -2.5 1.414112371443 0.34990206785
266 1 1 1.0 -2.5 1.481451055797 -0.466536090467
267 1 1 1.0 -2.5 1.481451055797 -0.233268045233
268 1 1 1.0 -2.5 1.481451055797 0.0
269 1 1 1.0 -2.5 1.481451055797 0.233268045233
270 1 1 1.0 -2.5 1.481451055797 0.466536090467
271 1 1 1.0 -2.5 1.548789740152 -0.34990206785
272 1 1 1.0 -2.5 1.548789740152 -0.116634022617
273 1 1 1.0 -2.5 1.548789740152 0.116634022617
274 1 1 1.0 -2.5 1.548789740152 0.34990206785
275 1 1 1.0 -2.5 1.616128424506 -0.466536090467
276 1 1 1.0 -2.5 1.616128424506 -0.233268045233
277 1 1 1.0 -2.5 1.616128424506 0.0
278 1 1 1.0 -2.5 1.616128424506 0.233268045233
279 1 1 1.0 -2.5 1.616128424506 0.466536090467
280 1 1 1.0 -2.5 1.683467108861 -0.34990206785
281 1 1 1.0 -2.5 1.683467108861 -0.116634022617
282 1 1 1.0 -2.5 1.683467108861 0.116634022617
283 1 1 1.0 -2.5 1.683467108861 0.34990206785
284 1 1 1.0 -2.5 1.750805793215 -0.466536090467
285 1 1 1.0 -2.5 1.750805793215 -0.233268045233
286 1 1 1.0 -2.5 1.750805793215 0.0
287 1 1 1.0 -2.5 1.750805793215 0.233268045233
288 1 1 1.0 -2.5 1.750805793215 0.466536090467
289 1 1 1.0 -2.5 1.81814447757 -0.34990206785
290 1 1 1.0 -2.5 1.81814447757 -0.116634022617
291 1 1 1.0 -2.5 1.81814447757 0.116634022617
292 1 1 1.0 -2.5 1.81814447757 0.34990206785
293 1 1 1.0 -2.5 1.885483161924 -0.466536090467
294 1 1 1.0 -2.5 1.885483161924 -0.233268045233
295 1 1 1.0 -2.5 1.885483161924 0.0
296 1 1 1.0 -2.5 1.885483161924 0.233268045233
297 1 1 1.0 -2.5 1.885483161924 0.466536090467
298 1 1 1.0 -2.5 1.952821846278 -0.34990206785
299 1 1 1.0 -2.5 1.952821846278 -0.116634022617
300 1 1 1.0 -2.5 1.952821846278 0.116634022617
301 1 1 1.0 -2.5 1.952821846278 0.34990206785
302 1 1 1.0 -2.5 2.020160530633 -0.466536090467
303 1 1 1.0 -2.5 2.020160530633 -0.233268045233
304 1 1 1.0 -2.5 2.020160530633 0.0
305 1 1 1.0 -2.5 2.020160530633 0.233268045233
306 1 1 1.0 -2.5 2.020160530633 0.466536090467
307 1 1 1.0 -2.5 2.087499214987 -0.34990206785
308 1 1 1.0 -2.5 2.087499214987 -0.116634022617
309 1 1 1.0 -2.5 2.087499214987 0.116634022617
310 1 1 1.0 -2.5 2.087499214987 0.34990206785
311 1 1 1.0 -2.5 2.154837899342 -0.466536090467
312 1 1 1.0 -2.5 2.154837899342 -0.233268045233
313 1 1 1.0 -2.5 2.154837899342 0.0
314 1 1 1.0 -2.5 2.154837899342 0.233268045233
315 1 1 1.0 -2.5 2.154837899342 0.466536090467
316 1 1 1.0 -2.5 2.222176583696 -0.34990206785
317 1 1 1.0 -2.5 2.222176583696 -0.116634022617
318 1 1 1.0 -2.5 2.222176583696 0.116634022617
319 1 1 1.0 -2.5 2.222176583696 0.34990206785
320 1 1 1.0 -2.5 2.289515268051 -0.466536090467
321 1 1 1.0 -2.5 2.289515268051 -0.233268045233
322 1 1 1.0 -2.5 2.289515268051 0.0
323 1 1 1.0 -2.5 2.289515268051 0.233268045233
324 1 1 1.0 -2.5 2.289515268051 0.466536090467
325 1 1 1.0 -2.5 2.356853952405 -0.34990206785
326 1 1 1.0 -2.5 2.356853952405 -0.116634022617
327 1 1 1.0 -2.5 2.356853952405 0.116634022617
328 1 1 1.0 -2.5 2.356853952405 0.34990206785
329 1 1 1.0 -2.5 2.424192636759 -0.466536090467
330 1 1 1.0 -2.5 2.424192636759 -0.233268045233
331 1 1 1.0 -2.5 2.424192636759 0.0
332 1 1 1.0 -2.5 2.424192636759 0.233268045233
333 1 1 1.0 -2.5 2.424192636759 0.466536090467
334 1 1 1.0 -2.5 2.491531321114 -0.34990206785
335 1 1 1.0 -2.5 2.491531321114 -0.116634022617
336 1 1 1.0 -2.5 2.491531321114 0.116634022617
337 1 1 1.0 -2.5 2.491531321114 0.34990206785
338 1 1 1.0 -2.491531321114 -2.5 -0.34990206785
339 1 1 1.0 -2.491531321114 -2.5 -0.116634022617
340 1 1 1.0 -2.491531321114 -2.5 0.116634022617
341 1 1 1.0 -2.491531321114 -2.5 0.34990206785
342 1 1 1.0 -2.491531321114 -2.449314474951 -0.5
343 1 1 1.0 -2.491531321114 -2.449314474951 0.5
344 1 1 1.0 -2.491531321114 -2.216046429718 -0.5
345 1 1 1.0 -2.491531321114 -2.216046429718 0.5
346 1 1 1.0 -2.491531321114 -1.982778384484 -0.5
347 1 1 1.0 -2.491531321114 -1.982778384484 0.5
348 1 1 1.0 -2.491531321114 -1.749510339251 -0.5
349 1 1 1.0 -2.491531321114 -1.749510339251 0.5
350 1 1 1.0 -2.491531321114 -1.516242294017 -0.5
351 1 1 1.0 -2.491531321114 -1.516242294017 0.5
352 1 1 1.0 -2.491531321114 -1.282974248784 -0.5
353 1 1 1.0 -2.491531321114 -1.282974248784 0.5
354 1 1 1.0 -2.491531321114 -1.04970620355 -0.5
355 1 1 1.0 -2.491531321114 -1.04970620355 0.5
356 1 1 1.0 -2.491531321114 -0.816438158317 -0.5
357 1 1 1.0 -2.491531321114 -0.816438158317 0.5
358 1 1 1.0 -2.491531321114 -0.583170113084 -0.5
359 1 1 1.0 -2.491531321114 -0.583170113084 0.5
360 1 1 1.0 -2.491531321114 -0.34990206785 -0.5
361 1 1 1.0 -2.491531321114 -0.34990206785 0.5
362 1 1 1.0 -2.491531321114 -0.116634022617 -0.5
363 1 1 1.0 -2.491531321114 -0.116634022617 0.5
364 1 1 1.0 -2.491531321114 0.116634022617 -0.5
365 1 1 1.0 -2.491531321114 0.116634022617 0.5
366 1 1 1.0 -2.491531321114 0.34990206785 -0.5
367 1 1 1.0 -2.491531321114 0.34990206785 0.5
368 1 1 1.0 -2.491531321114 0.583170113084 -0.5
369 1 1 1.0 -2.491531321114 0.583170113084 0.5
370 1 1 1.0 -2.491531321114 0.816438158317 -0.5
371 1 1 1.0 -2.491531321114 0.816438158317 0.5
372 1 1 1.0 -2.491531321114 1.04970620355 -0.5
373 1 1 1.0 -2.491531321114 1.04970620355 0.5
374 1 1 1.0 -2.491531321114 1.282974248784 -0.5
375 1 1 1.0 -2.491531321114 1.282974248784 0.5
376 1 1 1.0 -2.491531321114 1.516242294017 -0.5
377 1 1 1.0 -2.491531321114 1.516242294017 0.5
378 1 1 1.0 -2.491531321114 1.749510339251 -0.5
379 1 1 1.0 -2.491531321114 1.749510339251 0.5
380 1 1 1.0 -2.491531321114 1.982778384484 -0.5
381 1 1 1.0 -2.491531321114 1.982778384484 0.5
382 1 1 1.0 -2.491531321114 2.216046429718 -0.5
383 1 1 1.0 -2.491531321114 2.216046429718 0.5
384 1 1 1.0 -2.491531321114 2.449314474951 -0.5
385 1 1 1.0 -2.491531321114 2.449314474951 0.5
386 1 1 1.0 -2.491531321114 2.5 -0.34990206785
387 1 1 1.0 -2.491531321114 2.5 -0.116634022617
388 1 1 1.0 -2.491531321114 2.5 0.116634022617
389 1 1 1.0 -2.491531321114 2.5 0.34990206785
390 1 1 1.0 -2.424192636759 -2.5 -0.466536090467
391 1 1 1.0 -2.424192636759 -2.5 -0.233268045233
392 1 1 1.0 -2.424192636759 -2.5 0.0
393 1 1 1.0 -2.424192636759 -2.5 0.233268045233
394 1 1 1.0 -2.424192636759 -2.5 0.466536090467
395 1 1 1.0 -2.424192636759 -2.332680452334 -0.5
396 1 1 1.0 -2.424192636759 -2.332680452334 0.5
397 1 1 1.0 -2.424192636759 -2.099412407101 -0.5
398 1 1 1.0 -2.424192636759 -2.099412407101 0.5
399 1 1 1.0 -2.424192636759 -1.866144361867 -0.5
400 1 1 1.0 -2.424192636759 -1.866144361867 0.5
401 1 1 1.0 -2.424192636759 -1.632876316634 -0.5
402 1 1 1.0 -2.424192636759 -1.632876316634 0.5
403 1 1 1.0 -2.424192636759 -1.399608271401 -0.5
404 1 1 1.0 -2.424192636759 -1.399608271401 0.5
405 1 1 1.0 -2.424192636759 -1.166340226167 -0.5
406 1 1 1.0 -2.424192636759 -1.166340226167 0.5
407 1 1 1.0 -2.424192636759 -0.933072180934 -0.5
408 1 1 1.0 -2.424192636759 -0.933072180934 0.5
409 1 1 1.0 -2.424192636759 -0.6998041357 -0.5
410 1 1 1.0 -2.424192636759 -0.6998041357 0.5
411 1 1 1.0 -2.424192636759 -0.466536090467 -0.5
412 1 1 1.0 -2.424192636759 -0.466536090467 0.5
413 1 1 1.0 -2.424192636759 -0.233268045233 -0.5
414 1 1 1.0 -2.424192636759 -0.233268045233 0.5
415 1 1 1.0 -2.424192636759 0.0 -0.5
416 1 1 1.0 -2.424192636759 0.0 0.5
417 1 1 1.0 -2.424192636759 0.233268045233 -0.5
418 1 1 1.0 -2.424192636759 0.233268045233 0.5
419 1 1 1.0 -2.424192636759 0.466536090467 -0.5
420 1 1 1.0 -2.424192636759 0.466536090467 0.5
421 1 1 1.0 -2.424192636759 0.6998041357 -0.5
422 1 1 1.0 -2.424192636759 0.6998041357 0.5
423 1 1 1.0 -2.424192636759 0.933072180934 -0.5
424 1 1 1.0 -2.424192636759 0.933072180934 0.5
425 1 1 1.0 -2.424192636759 1.166340226167 -0.5
426 1 1 1.0 -2.424192636759 1.166340226167 0.5
427 1 1 1.0 -2.424192636759 1.399608271401 -0.5
428 1 1 1.0 -2.424192636759 1.399608271401 0.5
429 1 1 1.0 -2.424192636759 1.632876316634 -0.5
430 1 1 1.0 -2.424192636759 1.632876316634 0.5
431 1 1 1.0 -2.424192636759 1.866144361867 -0.5
432 1 1 1.0 -2.424192636759 1.866144361867 0.5
433 1 1 1.0 -2.424192636759 2.099412407101 -0.5
434 1 1 1.0 -2.424192636759 2.099412407101 0.5
435 1 1 1.0 -2.424192636759 2.332680452334 -0.5
436 1 1 1.0 -2.424192636759 2.332680452334 0.5
437 1 1 1.0 -2.424192636759 2.5 -0.466536090467
438 1 1 1.0 -2.424192636759 2.5 -0.233268045233
439 1 1 1.0 -2.424192636759 2.5 0.0
440 1 1 1.0 -2.424192636759 2.5 0.233268045233
441 1 1 1.0 -2.424192636759 2.5 0.466536090467
442 1 1 1.0 -2.356853952405 -2.5 -0.34990206785
443 1 1 1.0 -2.356853952405 -2.5 -0.116634022617
444 1 1 1.0 -2.356853952405 -2.5 0.116634022617
445 1 1 1.0 -2.356853952405 -2.5 0.34990206785
446 1 1 1.0 -2.356853952405 -2.449314474951 -0.5
447 1 1 1.0 -2.356853952405 -2.449314474951 0.5
448 1 1 1.0 -2.356853952405 -2.216046429718 -0.5
449 1 1 1.0 -2.356853952405 -2.216046429718 0.5
450 1 1 1.0 -2.356853952405 -1.982778384484 -0.5
451 1 1 1.0 -2.356853952405 -1.982778384484 0.5
452 1 1 1.0 -2.356853952405 -1.749510339251 -0.5
453 1 1 1.0 -2.356853952405 -1.749510339251 0.5
454 1 1 1.0 -2.356853952405 -1.516242294017 -0.5
455 1 1 1.0 -2.356853952405 -1.516242294017 0.5
456 1 1 1.0 -2.356853952405 -1.282974248784 -0.5
457 1 1 1.0 -2.356853952405 -1.282974248784 0.5
458 1 1 1.0 -2.356853952405 -1.04970620355 -0.5
459 1 1 1.0 -2.356853952405 -1.04970620355 0.5
460 1 1 1.0 -2.356853952405 -0.816438158317 -0.5
461 1 1 1.0 -2.356853952405 -0.816438158317 0.5
462 1 1 1.0 -2.356853952405 -0.583170113084 -0.5
463 1 1 1.0 -2.356853952405 -0.583170113084 0.5
464 1 1 1.0 -2.356853952405 -0.34990206785 -0.5
465 1 1 1.0 -2.356853952405 -0.34990206785 0.5
466 1 1 1.0 -2.356853952405 -0.116634022617 -0.5
467 1 1 1.0 -2.356853952405 -0.116634022617 0.5
468 1 1 1.0 -2.356853952405 0.116634022617 -0.5
469 1 1 1.0 -2.356853952405 0.116634022617 0.5
470 1 1 1.0 -2.356853952405 0.34990206785 -0.5
471 1 1 1.0 -2.356853952405 0.34990206785 0.5
472 1 1 1.0 -2.356853952405 0.583170113084 -0.5
473 1 1 1.0 -2.356853952405 0.583170113084 0.5
474 1 1 1.0 -2.356853952405 0.816438158317 -0.5
475 1 1 1.0 -2.356853952405 0.816438158317 0.5
476 1 1 1.0 -2.356853952405 1.04970620355 -0.5
477 1 1 1.0 -2.356853952405 1.04970620355 0.5
478 1 1 1.0 -2.356853952405 1.282974248784 -0.5
479 1 1 1.0 -2.356853952405 1.282974248784 0.5
480 1 1 1.0 -2.356853952405 1.516242294017 -0.5
481 1 1 1.0 -2.356853952405 1.516242294017 0.5
482 1 1 1.0 -2.356853952405 1.749510339251 -0.5
483 1 1 1.0 -2.356853952405 1.749510339251 0.5
484 1 1 1.0 -2.356853952405 1.982778384484 -0.5
485 1 1 1.0 -2.356853952405 1.982778384484 0.5
486 1 1 1.0 -2.356853952405 2.216046429718 -0.5
487 1 1 1.0 -2.356853952405 2.216046429718 0.5
488 1 1 1.0 -2.356853952405 2.449314474951 -0.5
489 1 1 1.0 -2.356853952405 2.449314474951 0.5
490 1 1 1.0 -2.356853952405 2.5 -0.34990206785
491 1 1 1.0 -2.356853952405 2.5 -0.116634022617
492 1 1 1.0 -2.356853952405 2.5 0.116634022617
493 1 1 1.0 -2.356853952405 2.5 0.34990206785
494 1 1 1.0 -2.289515268051 -2.5 -0.466536090467
495 1 1 1.0 -2.289515268051 -2.5 -0.233268045233
496 1 1 1.0 -2.289515268051 -2.5 0.0
497 1 1 1.0 -2.289515268051 -2.5 0.233268045233
498 1 1 1.0 -2.289515268051 -2.5 0.466536090467
499 1 1 1.0 -2.289515268051 -2.332680452334 -0.5
500 1 1 1.0 -2.289515268051 -2.332680452334 0.5
501 1 1 1.0 -2.289515268051 -2.099412407101 -0.5
502 1 1 1.0 -2.289515268051 -2.099412407101 0.5
503 1 1 1.0 -2.289515268051 -1.866144361867 -0.5
504 1 1 1.0 -2.289515268051 -1.866144361867 0.5
505 1 1 1.0 -2.289515268051 -1.632876316634 -0.5
506 1 1 1.0 -2.289515268051 -1.632876316634 0.5
507 1 1 1.0 -2.289515268051 -1.399608271401 -0.5
508 1 1 1.0 -2.289515268051 -1.399608271401 0.5
509 1 1 1.0 -2.289515268051 -1.166340226167 -0.5
510 1 1 1.0 -2.289515268051 -1.166340226167 0.5
511 1 1 1.0 -2.289515268051 -0.933072180934 -0.5
512 1 1 1.0 -2.289515268051 -0.933072180934 0.5
513 1 1 1.0 -2.289515268051 -0.6998041357 -0.5
514 1 1 1.0 -2.289515268051 -0.6998041357 0.5
515 1 1 1.0 -2.289515268051 -0.466536090467 -0.5
516 1 1 1.0 -2.289515268051 -0.466536090467 0.5
517 1 1 1.0 -2.289515268051 -0.233268045233 -0.5
518 1 1 1.0 -2.289515268051 -0.233268045233 0.5
519 1 1 1.0 -2.289515268051 0.0 -0.5
520 1 1 1.0 -2.289515268051 0.0 0.5
521 1 1 1.0 -2.289515268051 0.233268045233 -0.5
522 1 1 1.0 -2.289515268051 0.233268045233 0.5
523 1 1 1.0 -2.289515268051 0.466536090467 -0.5
524 1 1 1.0 -2.289515268051 0.466536090467 0.5
525 1 1 1.0 -2.289515268051 0.6998041357 -0.5
526 1 1 1.0 -2.289515268051 0.6998041357 0.5
527 1 1 1.0 -2.289515268051 0.933072180934 -0.5
528 1 1 1.0 -2.289515268051 0.933072180934 0.5
529 1 1 1.0 -2.289515268051 1.166340226167 -0.5
530 1 1 1.0 -2.289515268051 1.166340226167 0.5
531 1 1 1.0 -2.289515268051 1.399608271401 -0.5
532 1 1 1.0 -2.289515268051 1.399608271401 0.5
533 1 1 1.0 -2.289515268051 1.632876316634 -0.5
534 1 1 1.0 -2.289515268051 1.632876316634 0.5
535 1 1 1.0 -2.289515268051 1.866144361867 -0.5
536 1 1 1.0 -2.289515268051 1.866144361867 0.5
537 1 1 1.0 -2.289515268051 2.099412407101 -0.5
538 1 1 1.0 -2.289515268051 2.099412407101 0.5
539 1 1 1.0 -2.289515268051 2.332680452334 -0.5
540 1 1 1.0 -2.289515268051 2.332680452334 0.5
541 1 1 1.0 -2.289515268051 2.5 -0.466536090467
542 1 1 1.0 -2.289515268051 2.5 -0.233268045233
543 1 1 1.0 -2.289515268051 2.5 0.0
544 1 1 1.0 -2.289515268051 2.5 0.233268045233
545 1 1 1.0 -2.289515268051 2.5 0.466536090467
546 1 1 1.0 -2.222176583696 -2.5 -0.34990206785
547 1 1 1.0 -2.222176583696 -2.5 -0.116634022617
548 1 1 1.0 -2.222176583696 -2.5 0.116634022617
549 1 1 1.0 -2.222176583696 -2.5 0.34990206785
550 1 1 1.0 -2.222176583696 -2.449314474951 -0.5
551 1 1 1.0 -2.222176583696 -2.449314474951 0.5
552 1 1 1.0 -2.222176583696 -2.216046429718 -0.5
553 1 1 1.0 -2.222176583696 -2.216046429718 0.5
554 1 1 1.0 -2.222176583696 -1.982778384484 -0.5
555 1 1 1.0 -2.222176583696 -1.982778384484 0.5
556 1 1 1.0 -2.222176583696 -1.749510339251 -0.5
557 1 1 1.0 -2.222176583696 -1.749510339251 0.5
558 1 1 1.0 -2.222176583696 -1.516242294017 -0.5
559 1 1 1.0 -2.222176583696 -1.516242294017 0.5
560 1 1 1.0 -2.222176583696 -1.282974248784 -0.5
561 1 1 1.0 -2.222176583696 -1.282974248784 0.5
562 1 1 1.0 -2.222176583696 -1.04970620355 -0.5
563 1 1 1.0 -2.222176583696 -1.04970620355 0.5
564 1 1 1.0 -2.222176583696 -0.816438158317 -0.5
565 1 1 1.0 -2.222176583696 -0.816438158317 0.5
566 1 1 1.0 -2.222176583696 -0.583170113084 -0.5
567 1 1 1.0 -2.222176583696 -0.583170113084 0.5
568 1 1 1.0 -2.222176583696 -0.34990206785 -0.5
569 1 1 1.0 -2.222176583696 -0.34990206785 0.5
570 1 1 1.0 -2.222176583696 -0.116634022617 -0.5
571 1 1 1.0 -2.222176583696 -0.116634022617 0.5
572 1 1 1.0 -2.222176583696 0.116634022617 -0.5
573 1 1 1.0 -2.222176583696 0.116634022617 0.5
574 1 1 1.0 -2.222176583696 0.34990206785 -0.5
575 1 1 1.0 -2.222176583696 0.34990206785 0.5
576 1 1 1.0 -2.222176583696 0.583170113084 -0.5
577 1 1 1.0 -2.222176583696 0.583170113084 0.5
578 1 1 1.0 -2.222176583696 0.816438158317 -0.5
579 1 1 1.0 -2.222176583696 0.816438158317 0.5
580 1 1 1.0 -2.222176583696 1.04970620355 -0.5
581 1 1 1.0 -2.222176583696 1.04970620355 0.5
582 1 1 1.0 -2.222176583696 1.282974248784 -0.5
583 1 1 1.0 -2.222176583696 1.282974248784 0.5
584 1 1 1.0 -2.222176583696 1.516242294017 -0.5
585 1 1 1.0 -2.222176583696 1.516242294017 0.5
586 1 1 1.0 -2.222176583696 1.749510339251 -0.5
587 1 1 1.0 -2.222176583696 1.749510339251 0.5
588 1 1 1.0 -2.222176583696 1.982778384484 -0.5
589 1 1 1.0 -2.222176583696 1.982778384484 0.5
590 1 1 1.0 -2.222176583696 2.216046429718 -0.5
591 1 1 1.0 -2.222176583696 2.216046429718 0.5
592 1 1 1.0 -2.222176583696 2.449314474951 -0.5
593 1 1 1.0 -2.222176583696 2.449314474951 0.5
594 1 1 1.0 -2.222176583696 2.5 -0.34990206785
595 1 1 1.0 -2.222176583696 2.5 -0.116634022617
596 1 1 1.0 -2.222176583696 2.5 0.116634022617
597 1 1 1.0 -2.222176583696 2.5 0.34990206785
598 1 1 1.0 -2.154837899342 -2.5 -0.466536090467
599 1 1 1.0 -2.154837899342 -2.5 -0.233268045233
600 1 1 1.0 -2.154837899342 -2.5 0.0
601 1 1 1.0 -2.154837899342 -2.5 0.233268045233
602 1 1 1.0 -2.154837899342 -2.5 0.466536090467
603 1 1 1.0 -2.154837899342 -2.332680452334 -0.5
604 1 1 1.0 -2.154837899342 -2.332680452334 0.5
605 1 1 1.0 -2.154837899342 -2.099412407101 -0.5
606 1 1 1.0 -2.154837899342 -2.099412407101 0.5
607 1 1 1.0 -2.154837899342 -1.866144361867 -0.5
608 1 1 1.0 -2.154837899342 -1.866144361867 0.5
609 1 1 1.0 -2.154837899342 -1.632876316634 -0.5
610 1 1 1.0 -2.154837899342 -1.632876316634 0.5
611 1 1 1.0 -2.154837899342 -1.399608271401 -0.5
612 1 1 1.0 -2.154837899342 -1.399608271401 0.5
613 1 1 1.0 -2.154837899342 -1.166340226167 -0.5
614 1 1 1.0 -2.154837899342 -1.166340226167 0.5
615 1 1 1.0 -2.154837899342 -0.933072180934 -0.5
616 1 1 1.0 -2.154837899342 -0.933072180934 0.5
617 1 1 1.0 -2.154837899342 -0.6998041357 -0.5
618 1 1 1.0 -2.154837899342 -0.6998041357 0.5
619 1 1 1.0 -2.154837899342 -0.466536090467 -0.5
620 1 1 1.0 -2.154837899342 -0.466536090467 0.5
621 1 1 1.0 -2.154837899342 -0.233268045233 -0.5
622 1 1 1.0 -2.154837899342 -0.233268045233 0.5
623 1 1 1.0 -2.154837899342 0.0 -0.5
624 1 1 1.0 -2.154837899342 0.0 0.5
625 1 1 1.0 -2.154837899342 0.233268045233 -0.5
626 1 1 1.0 -2.154837899342 0.233268045233 0.5
627 1 1 1.0 -2.154837899342 0.466536090467 -0.5
628 1 1 1.0 -2.154837899342 0.466536090467 0.5
629 1 1 1.0 -2.154837899342 0.6998041357 -0.5
630 1 1 1.0 -2.154837899342 0.6998041357 0.5
631 1 1 1.0 -2.154837899342 0.933072180934 -0.5
632 1 1 1.0 -2.154837899342 0.933072180934 0.5
633 1 1 1.0 -2.154837899342 1.166340226167 -0.5
634 1 1 1.0 -2.154837899342 1.166340226167 0.5
635 1 1 1.0 -2.154837899342 1.399608271401 -0.5
636 1 1 1.0 -2.154837899342 1.399608271401 0.5
637 1 1 1.0 -2.154837899342 1.632876316634 -0.5
638 1 1 1.0 -2.154837899342 1.632876316634 0.5
639 1 1 1.0 -2.154837899342 1.866144361867 -0.5
640 1 1 1.0 -2.154837899342 1.866144361867 0.5