# Generated using make_nodes_sphere.py (uniform sphere sampling)

3200 atoms
 1 atom types

-1.0 1.0 xlo xhi
-1.0 1.0 ylo yhi
-1.0 1.0 zlo zhi

Atoms

1 1 1 1.0 0.0 0.0 1.0
2 1 1 1.0 -0.026069925422512664 0.02388218721804884 0.9993748046264458
3 1 1 1.0 0.004370602528245834 -0.04980076154775626 0.9987496092528916
4 1 1 1.0 0.037247464328635384 0.048582721405006704 0.9981244138793373
5 1 1 1.0 -0.06959708787459447 -0.012310744889244656 0.997499218505783
6 1 1 1.0 0.06666298015761725 -0.04240553125088299 0.9968740231322288
7 1 1 1.0 -0.022464808971428326 0.08356796962559214 0.9962488277586746
8 1 1 1.0 -0.04307343868512559 -0.0829352851089182 0.9956236323851203
9 1 1 1.0 0.09382926621274149 0.03426629753152552 0.9949984370115661
10 1 1 1.0 -0.09791894135708092 0.04041951555648058 0.9943732416380119
11 1 1 1.0 0.04732069331536234 -0.10112157301845494 0.9937480462644577
12 1 1 1.0 0.03503923029619169 0.11171058758495091 0.9931228508909034
13 1 1 1.0 -0.10578389355069027 -0.061303928567601494 0.9924976555173491
14 1 1 1.0 0.12426840743942622 -0.027320060775274484 0.9918724601437949
15 1 1 1.0 -0.07592767170447817 0.10799929978964343 0.9912472647702407
16 1 1 1.0 -0.017558490193055325 -0.13549765697740607 0.9906220693966865
17 1 1 1.0 0.10788378839814847 0.09092457107564521 0.9899968740231322
18 1 1 1.0 -0.1452844994500045 0.0060079701795071145 0.989371678649578
19 1 1 1.0 0.10604142955366051 -0.10552538570179074 0.9887464832760238
20 1 1 1.0 -0.0070985177611653915 0.15351199119143524 0.9881212879024696
21 1 1 1.0 -0.10100362020171025 -0.1210360935682937 0.9874960925289152
22 1 1 1.0 0.16006870159109032 0.021537017405279763 0.986870897155361
23 1 1 1.0 -0.13567627666261878 0.09440001942732797 0.9862457017818068
24 1 1 1.0 0.03708664792098385 -0.16485386830015444 0.9856205064082526
25 1 1 1.0 0.08580402397489399 0.14973946276574382 0.9849953110346984
26 1 1 1.0 -0.16778073545682734 -0.05352663078162083 0.9843701156611441
27 1 1 1.0 0.1630134362614306 -0.07531634222799172 0.9837449202875899
28 1 1 1.0 -0.07063504899421016 0.1687788385388891 0.9831197249140357
29 1 1 1.0 -0.06305076142979579 -0.17529717883112383 0.9824945295404814
30 1 1 1.0 0.16779561555586114 0.08818867287143432 0.9818693341669271
31 1 1 1.0 -0.18640197316917678 0.04913496191399175 0.9812441387933729
32 1 1 1.0 0.10596347127224055 -0.16479754416293788 0.9806189434198187
33 1 1 1.0 0.03371064724413742 0.19615260908949445 0.9799937480462645
34 1 1 1.0 -0.1597709145364965 -0.12373557654907687 0.9793685526727102
35 1 1 1.0 0.20438861998415542 -0.016933179375097765 0.978743357299156
36 1 1 1.0 -0.1412825540100691 0.15272230106855458 0.9781181619256017
37 1 1 1.0 0.001029160414970891 -0.21096549758223007 0.9774929665520475
38 1 1 1.0 0.1436787707721388 0.1583848744740797 0.9768677711784933
39 1 1 1.0 -0.21575584589805658 -0.019996203303426947 0.976242575804939
40 1 1 1.0 0.17482751725728693 -0.13268785253313747 0.9756173804313848
41 1 1 1.0 -0.039777159087947545 0.2186504440678069 0.9749921850578306
42 1 1 1.0 -0.11981728385565119 -0.19040164889794303 0.9743669896842764
43 1 1 1.0 0.21955919408833313 0.0601720724573878 0.973741794310722
44 1 1 1.0 -0.20490633456805757 0.10515454781816375 0.9731165989371678
45 1 1 1.0 0.0809734337584592 -0.21841193424407282 0.9724914035636136
46 1 1 1.0 0.08880621110233992 0.21815024695819785 0.9718662081900594
47 1 1 1.0 -0.21515910280484352 -0.10196791408763807 0.9712410128165052
48 1 1 1.0 0.22995334292564404 -0.07089707333080376 0.9706158174429509
49 1 1 1.0 -0.1229381980060884 0.2097722397469233 0.9699906220693967
50 1 1 1.0 -0.05156913805868633 -0.24014848224936047 0.9693654266958425
51 1 1 1.0 0.20224431700793144 0.14366488943243844 0.9687402313222883
52 1 1 1.0 -0.24858296598023488 0.030980416305320828 0.9681150359487339
53 1 1 1.0 0.16392846778518114 -0.19258989026793735 0.9674898405751797
54 1 1 1.0 0.00930357429841441 0.2551199744520383 0.9668646452016255
55 1 1 1.0 -0.18084506753973348 -0.18351127252159558 0.9662394498280713
56 1 1 1.0 0.2596398872441167 0.013275561988470463 0.965614254454517
57 1 1 1.0 -0.20219949504582535 0.16706729200310685 0.9649890590809628
58 1 1 1.0 0.03655963197412291 -0.2620414693998555 0.9643638637074086
59 1 1 1.0 0.15133493856246782 0.21978515766171103 0.9637386683338544
60 1 1 1.0 -0.26224291009515227 -0.06034148081688985 0.9631134729603001
61 1 1 1.0 0.23606805990968685 -0.1337467255620706 0.9624882775867458
62 1 1 1.0 -0.08440599962224353 0.26018270177532715 0.9618630822131916
63 1 1 1.0 -0.11442094496662158 -0.2508576733070244 0.9612378868396374
64 1 1 1.0 0.2558203495727083 0.10853204936231957 0.9606126914660832
65 1 1 1.0 -0.2639749662440845 0.09349451610886765 0.9599874960925289
66 1 1 1.0 0.1324944516632572 -0.24913690260105667 0.9593623007189747
67 1 1 1.0 0.07112186981829037 0.2752541415990581 0.9587371053454204
68 1 1 1.0 -0.24013530050780937 -0.15606602903927103 0.9581119099718662
69 1 1 1.0 0.2845442705350505 -0.04747367137063218 0.9574867145983119
70 1 1 1.0 -0.17901967670718663 0.2288405304541637 0.9568615192247577
71 1 1 1.0 -0.02273539223039507 -0.2917108069435659 0.9562363238512035
72 1 1 1.0 0.21529959148477565 0.20113044780977943 0.9556111284776493
73 1 1 1.0 -0.29663696810052387 -0.0028942580102010954 0.9549859331040951
74 1 1 1.0 0.22217763371721977 -0.19958126503816667 0.9543607377305408
75 1 1 1.0 -0.029205026770281407 0.2992249683037361 0.9537355423569865
76 1 1 1.0 -0.18177569212828923 -0.24194682106694984 0.9531103469834323
77 1 1 1.0 0.29939709356040656 0.055976926767094426 0.9524851516098781
78 1 1 1.0 -0.26023190734606355 0.16199375948725162 0.9518599562363238
79 1 1 1.0 0.0829821424413838 -0.2970966067833617 0.9512347608627696
80 1 1 1.0 0.14036629868891318 0.2768370571162393 0.9506095654892154
81 1 1 1.0 -0.2922884744271527 -0.10998701856582073 0.9499843701156612
82 1 1 1.0 0.29157858142906623 -0.11704310396088694 0.949359174742107
83 1 1 1.0 -0.1367541142748407 0.2849599070402967 0.9487339793685526
84 1 1 1.0 -0.09219177602697422 -0.30428672357583664 0.9481087839949984
85 1 1 1.0 0.27512070781670095 0.16304430509363804 0.9474835886214442
86 1 1 1.0 -0.3148073350566148 0.06599640089108184 0.94685839324789
87 1 1 1.0 0.1886189150344049 -0.26280342488588737 0.9462331978743357
88 1 1 1.0 0.03865607396529005 0.32300342653302 0.9456080025007815
89 1 1 1.0 -0.2480633047753812 -0.2132418604727082 0.9449828071272273
90 1 1 1.0 0.32875657954078097 -0.010383281347681173 0.944357611753673
91 1 1 1.0 -0.2366817873196801 0.23097804619596152 0.9437324163801188
92 1 1 1.0 0.01859784864204943 -0.33196820587393977 0.9431072210065645
93 1 1 1.0 0.21164735502815107 0.258714182967006 0.9424820256330103
94 1 1 1.0 -0.332560642803165 -0.04805340936869915 0.9418568302594561
95 1 1 1.0 0.2791234446029318 -0.19019230311189342 0.9412316348859019
96 1 1 1.0 -0.07774167985717283 0.3304780736461789 0.9406064395123476
97 1 1 1.0 -0.16675449514705015 -0.2977048857770705 0.9399812441387934
98 1 1 1.0 0.3256872646575175 0.10741517252260875 0.9393560487652391
99 1 1 1.0 -0.31426666352782573 0.14149504968587154 0.9387308533916849
100 1 1 1.0 0.13682274753445364 -0.31817811073594193 0.9381056580181306
101 1 1 1.0 0.11459340182640064 0.3286316089751016 0.9374804626445764
102 1 1 1.0 -0.3079639840482216 -0.16571177603202586 0.9368552672710222
103 1 1 1.0 0.3406389450183196 -0.08624593678352727 0.936230071897468
104 1 1 1.0 -0.19383033389740698 0.29508188132430596 0.9356048765239138
105 1 1 1.0 -0.05666446501000385 -0.3501458756591347 0.9349796811503595
106 1 1 1.0 0.2795923672776317 0.2209294074333514 0.9343544857768052
107 1 1 1.0 -0.35702903248310947 0.026074550949462476 0.933729290403251
108 1 1 1.0 0.24676509209379732 -0.26157931333106266 0.9331040950296968
109 1 1 1.0 -0.005286291183945209 0.3611857649764014 0.9324788996561425
110 1 1 1.0 -0.24114943256950694 -0.27110076537373196 0.9318537042825883
111 1 1 1.0 0.3625352626130725 0.03717052000076876 0.9312285089090341
112 1 1 1.0 -0.2937092150846633 0.21843161357994026 0.9306033135354799
113 1 1 1.0 0.06932259222289582 -0.3610194980156913 0.9299781181619255
114 1 1 1.0 0.1935760575638492 0.3143747045211316 0.9293529227883713
115 1 1 1.0 -0.35660398195522763 -0.1014810740216362 0.9287277274148171
116 1 1 1.0 0.3328949564606224 -0.166753224801432 0.9281025320412629
117 1 1 1.0 -0.13338082094752368 0.3492783225039 0.9274773366677087
118 1 1 1.0 -0.13815259819702358 -0.34908303853073785 0.9268521412941544
119 1 1 1.0 0.3390565822737602 0.16475520831656415 0.9262269459206002
120 1 1 1.0 -0.3627691332190867 0.10798127322696559 0.925601750547046
121 1 1 1.0 0.19533839339172662 -0.32597742935135776 0.9249765551734918
122 1 1 1.0 0.07646238513172869 0.3738021766870463 0.9243513597999374
123 1 1 1.0 -0.3101040792603074 -0.22486759032870743 0.9237261644263832
124 1 1 1.0 0.38205135157205977 -0.04383338562888341 0.923100969052829
125 1 1 1.0 -0.25308533864247534 0.2915240270355892 0.9224757736792748
126 1 1 1.0 -0.010344182762682045 -0.38740742011528506 0.9218505783057205
127 1 1 1.0 0.2703485702605572 0.27974174590067213 0.9212253829321663
128 1 1 1.0 -0.3897838852240757 -0.023744841264428183 0.9206001875586121
129 1 1 1.0 0.3045966854608666 -0.24671212568570006 0.9199749921850578
130 1 1 1.0 -0.05816491832211707 0.38911796846101626 0.9193497968115036
131 1 1 1.0 -0.22077134380222524 -0.3274219303413271 0.9187246014379493
132 1 1 1.0 0.3853713954321672 0.09264107170617791 0.9180994060643951
133 1 1 1.0 -0.34800320474746876 0.19270402746883572 0.9174742106908409
134 1 1 1.0 0.12689436483372704 -0.3785309806147534 0.9168490153172867
135 1 1 1.0 0.16270786237217502 0.3661421353654783 0.9162238199437325
136 1 1 1.0 -0.36860900530596585 -0.16064420279781144 0.9155986245701782
137 1 1 1.0 0.38165808527642975 -0.13099896872609365 0.9149734291966239
138 1 1 1.0 -0.19361066775179964 0.3556433840764302 0.9143482338230697
139 1 1 1.0 -0.09781028516843132 -0.3943898542329094 0.9137230384495154
140 1 1 1.0 0.33969761686030037 0.22551686870267568 0.9130978430759612
141 1 1 1.0 -0.4041972300688825 0.0633897972831745 0.912472647702407
142 1 1 1.0 0.2560912860614983 -0.3208605255944527 0.9118474523288528
143 1 1 1.0 0.02799862454813162 0.4109623771742428 0.9112222569552986
144 1 1 1.0 -0.29924577611710984 -0.2850700912315454 0.9105970615817442
145 1 1 1.0 0.4145910492490531 0.008091019228324833 0.90997186620819
146 1 1 1.0 -0.3121994216105408 0.2749911878370073 0.9093466708346358
147 1 1 1.0 0.044597975773458365 -0.4150136149486482 0.9087214754610816
148 1 1 1.0 0.24825783547184013 0.33723759164427647 0.9080962800875274
149 1 1 1.0 -0.4121858865285672 -0.08123438529775581 0.9074710847139731
150 1 1 1.0 0.3599572209910056 -0.21922894891600678 0.9068458893404189
151 1 1 1.0 -0.11770800442566597 0.4060897431853477 0.9062206939668647
152 1 1 1.0 -0.18810861901620543 -0.38014726143870814 0.9055954985933105
153 1 1 1.0 0.39673354245312886 0.15372458028218533 0.9049703032197561
154 1 1 1.0 -0.39761490495493024 0.1551203186959181 0.9043451078462019
155 1 1 1.0 0.1889902613312158 -0.3841523147429789 0.9037199124726477
156 1 1 1.0 0.12050525046178427 0.4121873561365644 0.9030947170990935
157 1 1 1.0 -0.36840773788802456 -0.2232140251433703 0.9024695217255392
158 1 1 1.0 0.42371345335776756 -0.08452053283297131 0.901844326351985
159 1 1 1.0 -0.25611010301505743 0.3495878903682145 0.9012191309784308
160 1 1 1.0 -0.0474372396460564 -0.4320651240802503 0.9005939356048765
161 1 1 1.0 0.3278067837191253 0.2874003812700485 0.8999687402313223
162 1 1 1.0 -0.43713866108236027 0.009538307490595992 0.899343544857768
163 1 1 1.0 0.3168167591507259 -0.30320367646452023 0.8987183494842138
164 1 1 1.0 -0.028883672286746206 0.4388558077715264 0.8980931541106596
165 1 1 1.0 -0.27594217373729646 -0.3441034434488981 0.8974679587371054
166 1 1 1.0 0.4371646422576203 0.06752875951915883 0.8968427633635511
167 1 1 1.0 -0.3690191604341273 0.2462091185528821 0.8962175679899969
168 1 1 1.0 0.10609205069431152 -0.43204025147053904 0.8955923726164426
169 1 1 1.0 0.21421328245814136 0.3913392662082414 0.8949671772428884
170 1 1 1.0 -0.42348518829095505 -0.14426612479790965 0.8943419818693341
171 1 1 1.0 0.4108577373442033 -0.1801838649825734 0.8937167864957799
172 1 1 1.0 -0.18174352974588343 0.4115297064153188 0.8930915911222257
173 1 1 1.0 -0.14436881295353776 -0.4273890245499551 0.8924663957486715
174 1 1 1.0 0.3962317694802752 0.2182192891749031 0.8918412003751173
175 1 1 1.0 -0.44076975312772926 0.10703297228786429 0.891216005001563
176 1 1 1.0 0.2533934090736849 -0.3776768328136425 0.8905908096280087
177 1 1 1.0 0.06845608632809508 0.45086025516708816 0.8899656142544545
178 1 1 1.0 -0.3559773980434371 -0.2869733636192898 0.8893404188809003
179 1 1 1.0 0.4575459197083172 -0.02893065613770581 0.888715223507346
180 1 1 1.0 -0.3186765396329236 0.3312723426682442 0.8880900281337918
181 1 1 1.0 0.011240320603787823 -0.4607383485304513 0.8874648327602376
182 1 1 1.0 0.3037260285560349 0.34823261928979976 0.8868396373866834
183 1 1 1.0 -0.46037630674457536 -0.05174571436924004 0.886214442013129
184 1 1 1.0 0.37538588110614973 -0.2735271951790349 0.8855892466395748
185 1 1 1.0 -0.09226871352374832 0.45642645899586554 0.8849640512660206
186 1 1 1.0 -0.2408876451942315 -0.3998973997809708 0.8843388558924664
187 1 1 1.0 0.4488838837842922 0.1324893395371676 0.8837136605189122
188 1 1 1.0 -0.42154712618680035 0.20604073172765094 0.8830884651453579
189 1 1 1.0 0.17208700751960918 -0.43777236019031945 0.8824632697718037
190 1 1 1.0 0.16923965840106842 0.4401358296774725 0.8818380743982495
191 1 1 1.0 -0.4231444231240884 -0.21074311144137126 0.8812128790246953
192 1 1 1.0 0.45548688590500647 -0.13075560473829637 0.880587683651141
193 1 1 1.0 -0.24814361307646024 0.40508118508970276 0.8799624882775867
194 1 1 1.0 -0.09087569109120508 -0.46744789450472835 0.8793372929040325
195 1 1 1.0 0.38369192435506866 0.2839816135567433 0.8787120975304783
196 1 1 1.0 -0.4758921123085764 0.049900798620239974 0.8780869021569241
197 1 1 1.0 0.31795988644297274 -0.35911344132737144 0.8774617067833698
198 1 1 1.0 0.008143261139480025 0.4807196891710165 0.8768365114098156
199 1 1 1.0 -0.33150918683798775 -0.3497933514119717 0.8762113160362613
200 1 1 1.0 0.48185869502948725 0.034075553220906864 0.8755861206627071
201 1 1 1.0 -0.3792114680224015 0.3010681679245495 0.8749609252891528
202 1 1 1.0 0.0764277515782043 -0.47926592845898996 0.8743357299155986
203 1 1 1.0 0.2680036385448774 0.405960529555475 0.8737105345420444
204 1 1 1.0 -0.4729274987061672 -0.1185814972774869 0.8730853391684902
205 1 1 1.0 0.4298058376261434 -0.23255158445344754 0.872460143794936
206 1 1 1.0 -0.16020364178354027 0.4628591749877903 0.8718349484213817
207 1 1 1.0 -0.19496901320061377 -0.45053373912052624 0.8712097530478274
208 1 1 1.0 0.44910649869782965 0.20096238644698267 0.8705845576742732
209 1 1 1.0 -0.46795350803016916 0.15553206186373544 0.8699593623007189
210 1 1 1.0 0.2405299527437247 -0.43174465607133355 0.8693341669271647
211 1 1 1.0 0.11453393667383431 0.4818990559155128 0.8687089715536105
212 1 1 1.0 -0.41087811078682995 -0.27858523939580765 0.8680837761800563
213 1 1 1.0 0.49223045603093996 -0.07228270014839146 0.8674585808065021
214 1 1 1.0 -0.3148164447652662 0.3866399979363397 0.8668333854329477
215 1 1 1.0 -0.029098922668140147 -0.4988352675719542 0.8662081900593935
216 1 1 1.0 0.35919128273753287 0.3489236330718514 0.8655829946858393
217 1 1 1.0 -0.5016296480503795 -0.014686783368090208 0.8649577993122851
218 1 1 1.0 0.38062122331970877 -0.32871968929028467 0.8643326039387309
219 1 1 1.0 -0.058736327621561654 0.5005592434539189 0.8637074085651766
220 1 1 1.0 -0.29543840657413156 -0.40964038032546185 0.8630822131916224
221 1 1 1.0 0.4955998475890135 0.10270678403158705 0.8624570178180682
222 1 1 1.0 -0.4357312879172608 0.25958458072838786 0.861831822444514
223 1 1 1.0 0.14625309033417147 -0.48675782382696786 0.8612066270709597
224 1 1 1.0 0.22141760443776437 0.45866528521644806 0.8605814316974054
225 1 1 1.0 -0.4740702843583255 -0.1890307834616707 0.8599562363238512
226 1 1 1.0 0.47823684791445453 -0.1812172159485017 0.859331040950297
227 1 1 1.0 -0.2306987489939058 0.45760502399446856 0.8587058455767427
228 1 1 1.0 -0.13928142184917366 -0.4942653976099741 0.8580806502031885
229 1 1 1.0 0.4374602075229516 0.2709219625960235 0.8574554548296343
230 1 1 1.0 -0.5065969235666526 0.09592425925296305 0.85683025945608
231 1 1 1.0 0.3093742013206472 -0.41376381160832504 0.8562050640825258
232 1 1 1.0 0.05147341440181748 0.5151054026796437 0.8555798687089715
233 1 1 1.0 -0.38667282421725996 -0.345740702772725 0.8549546733354173
234 1 1 1.0 0.5196940049894649 -0.0062677159651950455 0.8543294779618631
235 1 1 1.0 -0.37972075043514264 0.35637220651918544 0.8537042825883089
236 1 1 1.0 0.03934547758147301 -0.5202960737414101 0.8530790872147547
237 1 1 1.0 0.3230736241567965 0.41103016392837166 0.8524538918412004
238 1 1 1.0 -0.5168758707459882 -0.08501297615545111 0.8518286964676461
239 1 1 1.0 0.43940367362887756 -0.2870139566756417 0.8512035010940919
240 1 1 1.0 -0.13037852069678435 0.5094290796357211 0.8505783057205376
241 1 1 1.0 -0.24845359573778164 -0.46459715988849487 0.8499531103469834
242 1 1 1.0 0.49798306152266986 0.17508558845146635 0.8493279149734292
243 1 1 1.0 -0.48638973808036634 0.20767454450145942 0.848702719599875
244 1 1 1.0 0.21878021866764702 -0.48259685952344417 0.8480775242263208
245 1 1 1.0 0.1649783322154128 0.5045856718352627 0.8474523288527664
246 1 1 1.0 -0.4633609506188873 -0.2611138361805853 0.8468271334792122
247 1 1 1.0 0.5190160981182856 -0.12068375963773306 0.846201938105658
248 1 1 1.0 -0.3017460502577997 0.4403967453380905 0.8455767427321038
249 1 1 1.0 -0.07512449233233388 -0.5295405492199835 0.8449515473585496
250 1 1 1.0 0.41385583778465707 0.34034740615328546 0.8443263519849953
251 1 1 1.0 -0.536048258286915 0.028646520208944377 0.8437011566114411
252 1 1 1.0 0.3766020670789108 -0.3839190105409013 0.8430759612378869
253 1 1 1.0 -0.01839449715603629 0.5384592366827559 0.8424507658643325
254 1 1 1.0 -0.350795000976644 -0.41021040474087445 0.8418255704907783
255 1 1 1.0 0.5367251132392263 0.06563597886053951 0.8412003751172241
256 1 1 1.0 -0.4408914772066256 0.31471903743729346 0.8405751797436699
257 1 1 1.0 0.1127112432627817 -0.5308297273126293 0.8399499843701157
258 1 1 1.0 0.2759511556751482 0.46838537365872973 0.8393247889965614
259 1 1 1.0 -0.5207894694920905 -0.15925237870358355 0.8386995936230072
260 1 1 1.0 0.492455406551154 -0.23477430770285523 0.838074398249453
261 1 1 1.0 -0.2048931417389858 0.5066533657944549 0.8374492028758987
262 1 1 1.0 -0.19149227697382515 -0.5128901328034063 0.8368240075023445
263 1 1 1.0 0.4885029032125186 0.24927185991872577 0.8361988121287902
264 1 1 1.0 -0.5295051869405148 0.14642741541686916 0.835573616755236
265 1 1 1.0 0.29203431599035856 -0.46645159654167867 0.8349484213816818
266 1 1 1.0 0.09991821935794229 0.5421449105024682 0.8343232260081275
267 1 1 1.0 -0.44064429847880243 -0.33283659043764713 0.8336980306345734
268 1 1 1.0 0.5506837635946588 -0.05231676273804582 0.833072835261019
269 1 1 1.0 -0.3713478394758511 0.411256257049552 0.8324476398874648
270 1 1 1.0 -0.003986007271484047 -0.5550275061192317 0.8318224445139106
271 1 1 1.0 0.37849192646000035 0.40725298602478305 0.8311972491403563
272 1 1 1.0 -0.5551141380031674 -0.04470298972772103 0.8305720537668021
273 1 1 1.0 0.4402553017605646 -0.34258353946868547 0.8299468583932479
274 1 1 1.0 -0.09337394820070435 0.5509145896086451 0.8293216630196937
275 1 1 1.0 -0.3037894513200655 -0.47007885910500635 0.8286964676461395
276 1 1 1.0 0.5424331554601327 0.1416482964755513 0.8280712722725851
277 1 1 1.0 -0.4964708329421408 0.26239226715385494 0.8274460768990309
278 1 1 1.0 0.18914813769349853 -0.5297076664354735 0.8268208815254767
279 1 1 1.0 0.2186967665916245 0.5192036329479239 0.8261956861519225
280 1 1 1.0 -0.5128093976291281 -0.23549922814993418 0.8255704907783683
281 1 1 1.0 0.5380768486734083 -0.17302764088768663 0.824945295404814
282 1 1 1.0 -0.2803339439584673 0.4918427111883888 0.8243201000312598
283 1 1 1.0 -0.12572705960178826 -0.5529189909243684 0.8236949046577056
284 1 1 1.0 0.4669444355312453 0.3232942124216105 0.8230697092841512
285 1 1 1.0 -0.5635890145209947 0.07715208519292178 0.822444513910597
286 1 1 1.0 0.3640343846557416 -0.43828298446052655 0.8218193185370428
287 1 1 1.0 0.027671955236801302 0.5699776091875203 0.8211941231634886
288 1 1 1.0 -0.4060572217773962 -0.40222402636851495 0.8205689277899344
289 1 1 1.0 0.5720082471020972 0.02233474688197483 0.8199437324163801
290 1 1 1.0 -0.43755060422630504 0.3704950790485604 0.8193185370428259
291 1 1 1.0 0.07248301096032785 -0.5696379775160063 0.8186933416692717
292 1 1 1.0 0.3318519361834394 0.4697220459671773 0.8180681462957174
293 1 1 1.0 -0.5628579608159834 -0.12238438598832287 0.8174429509221632
294 1 1 1.0 0.49846915331322383 -0.2904087764096167 0.8168177555486089
295 1 1 1.0 -0.171650009877248 0.5516937364371926 0.8161925601750547
296 1 1 1.0 -0.24647012908417398 -0.5235478478037771 0.8155673648015005
297 1 1 1.0 0.536205221121951 0.21989365913921294 0.8149421694279462
298 1 1 1.0 -0.5447412309022447 0.20036181552882285 0.814316974054392
299 1 1 1.0 0.2667347944802807 -0.5164864361440453 0.8136917786808378
300 1 1 1.0 0.1524285147139232 0.5618614411143796 0.8130665833072835
301 1 1 1.0 -0.49266496426364953 -0.3118015781862121 0.8124413879337293
302 1 1 1.0 0.5747512923844027 -0.10303116712703833 0.811816192560175
303 1 1 1.0 -0.3547338392885203 0.4649011393264184 0.8111909971866208
304 1 1 1.0 -0.05254423653303098 -0.5832856796958942 0.8105658018130666
305 1 1 1.0 0.4333869735551894 0.3951859627986153 0.8099406064395124
306 1 1 1.0 -0.5873727395840902 0.0013528505533836274 0.8093154110659582
307 1 1 1.0 0.43282967978773956 -0.39834482968681306 0.8086902156924038
308 1 1 1.0 -0.05015015794790958 0.5869547551514486 0.8080650203188496
309 1 1 1.0 -0.36002584716307745 -0.467356735767036 0.8074398249452954
310 1 1 1.0 0.5820087971545267 0.10156728579496074 0.8068146295717411
311 1 1 1.0 -0.49848141568078647 0.3187081335769236 0.8061894341981869
312 1 1 1.0 0.15249944715848543 -0.5725470947819459 0.8055642388246327
313 1 1 1.0 0.27469473448706816 0.5259429048605389 0.8049390434510785
314 1 1 1.0 -0.5586171318545086 -0.20254908982606593 0.8043138480775243
315 1 1 1.0 0.5495074664909477 -0.22831139653021618 0.8036886527039699
316 1 1 1.0 -0.2513233156297449 0.5403014663328162 0.8030634573304157
317 1 1 1.0 -0.17990414046544614 -0.5689704175008049 0.8024382619568615
318 1 1 1.0 0.5177172731980506 0.29843698043079014 0.8018130665833073
319 1 1 1.0 -0.5841578863047383 0.12983666236608415 0.8011878712097531
320 1 1 1.0 0.3435157491102748 -0.49101561296072044 0.8005626758361988
321 1 1 1.0 0.0784875826173906 0.594928337470955 0.7999374804626446
322 1 1 1.0 -0.4603804302327351 -0.38619908125781255 0.7993122850890904
323 1 1 1.0 0.601173850165681 -0.02624756367167462 0.798687089715536
324 1 1 1.0 -0.42614312368822604 0.4260272889528656 0.7980618943419819
325 1 1 1.0 0.026483681354854988 -0.6028211391119523 0.7974366989684276
326 1 1 1.0 0.38820185296719867 0.46302348654437664 0.7968115035948734
327 1 1 1.0 -0.5998323087846242 -0.07930046619669875 0.7961863082213192
328 1 1 1.0 0.49653788055960935 -0.34717812271771553 0.7955611128477649
329 1 1 1.0 -0.13179427123435106 0.5922053336295116 0.7949359174742107
330 1 1 1.0 -0.3032564407670919 -0.5264085940495359 0.7943107221006565
331 1 1 1.0 0.5799742592263805 0.18355692114091882 0.7936855267271022
332 1 1 1.0 -0.5523847893729721 0.2567612807702475 0.793060331353548
333 1 1 1.0 0.23418377554306685 -0.5632091214964148 0.7924351359799937
334 1 1 1.0 0.20803883627787673 0.5742445999371466 0.7918099406064395
335 1 1 1.0 -0.5420155832677305 -0.28327690764641655 0.7911847452328853
336 1 1 1.0 0.5917970103130745 -0.15745442740907173 0.7905595498593311
337 1 1 1.0 -0.33044824576045134 0.5165342897397804 0.7899343544857769
338 1 1 1.0 -0.10538974494798457 -0.6048835036611223 0.7893091591122225
339 1 1 1.0 0.48693994661261963 0.3753226528393432 0.7886839637386683
340 1 1 1.0 -0.6133794624340211 0.05223995278530334 0.7880587683651141
341 1 1 1.0 0.41754091953747147 -0.45344012684978446 0.7874335729915598
342 1 1 1.0 -0.0015893291641613998 0.6171953102081462 0.7868083776180056
343 1 1 1.0 -0.41627381421021425 -0.4567626468515872 0.7861831822444514
344 1 1 1.0 0.6162773844826451 0.05568513839951588 0.7855579868708972
345 1 1 1.0 -0.49266899518971113 0.3757096937942235 0.784932791497343
346 1 1 1.0 0.10963035559927506 -0.610608532362348 0.7843075961237886
347 1 1 1.0 0.33204420188651873 0.5249652776592884 0.7836824007502344
348 1 1 1.0 -0.6002084231892061 -0.16300693801305086 0.7830572053766802
349 1 1 1.0 0.5533833764992903 -0.2855993493282381 0.782432010003126
350 1 1 1.0 -0.21539917529737854 0.5851335743913278 0.7818068146295718
351 1 1 1.0 -0.23672033449445723 -0.5776839628840139 0.7811816192560175
352 1 1 1.0 0.5654770890612739 0.2663969423296904 0.7805564238824633
353 1 1 1.0 -0.5976585017906697 0.1857729636785609 0.7799312285089091
354 1 1 1.0 0.3155989234503653 -0.541368106038588 0.7793060331353547
355 1 1 1.0 0.13314089827623257 0.6131310252374922 0.7786808377618005
356 1 1 1.0 -0.5129709655377261 -0.3626157826999623 0.7780556423882463
357 1 1 1.0 0.6239596589518621 -0.07922274960648577 0.7774304470146921
358 1 1 1.0 -0.4070732549370077 0.4804840956137241 0.7768052516411379
359 1 1 1.0 -0.024429043493202234 -0.6300378894054373 0.7761800562675836
360 1 1 1.0 0.4441386269762563 0.4486151332392708 0.7755548608940294
361 1 1 1.0 -0.6312955601411918 -0.030820922152708274 0.7749296655204752
362 1 1 1.0 0.4869061287049946 -0.4041967458305562 0.7743044701469209
363 1 1 1.0 -0.08610230257258047 0.6276995884002611 0.7736792747733667
364 1 1 1.0 -0.36094979652367026 -0.521634579675111 0.7730540793998124
365 1 1 1.0 0.619254395218476 0.14098798929181452 0.7724288840262582
366 1 1 1.0 -0.5525149884866273 0.3147161477898807 0.771803688652704
367 1 1 1.0 0.1950519256579169 -0.6060020443866827 0.7711784932791497
368 1 1 1.0 0.2658388383036501 0.5792903651332175 0.7705532979055955
369 1 1 1.0 -0.5880220879380273 -0.2478724289395924 0.7699281025320412
370 1 1 1.0 0.6017343586421924 -0.21468301904661574 0.769302907158487
371 1 1 1.0 -0.29903549298502874 0.5654311181216334 0.7686777117849328
372 1 1 1.0 -0.16163321166241384 -0.6196531585668247 0.7680525164113785
373 1 1 1.0 0.5383820281274537 0.3481380454849452 0.7674273210378243
374 1 1 1.0 -0.6328871507274144 0.10709040349579431 0.7668021256642701
375 1 1 1.0 0.39479113413788547 -0.5070629861234377 0.7661769302907159
376 1 1 1.0 0.051469001378089435 0.6413123132004142 0.7655517349171617
377 1 1 1.0 -0.47169612943533434 -0.43862301647037 0.7649265395436073
378 1 1 1.0 0.6448413405380923 0.0048063325817167745 0.7643013441700531
379 1 1 1.0 -0.47928212872001824 0.43253598792349696 0.7636761487964989
380 1 1 1.0 0.06130393892233779 -0.6434244862864184 0.7630509534229447
381 1 1 1.0 0.3898676477722726 0.5164399100411659 0.7624257580493905
382 1 1 1.0 -0.6370501160400285 -0.1175884873623506 0.7618005626758362
383 1 1 1.0 0.549793459333798 -0.3440046689886805 0.761175367302282
384 1 1 1.0 -0.1732243461922827 0.625744965513458 0.7605501719287278
385 1 1 1.0 -0.2952867718915218 -0.5790680032202639 0.7599249765551734
386 1 1 1.0 0.6095741003999601 0.22777896834239245 0.7592997811816192
387 1 1 1.0 -0.60401915509151 0.2440773097432438 0.758674585808065
388 1 1 1.0 0.28082626770931574 -0.5886405771150357 0.7580493904345108
389 1 1 1.0 0.19076054642201806 0.6244349467038461 0.7574241950609566
390 1 1 1.0 -0.5630848058640159 -0.331949959296926 0.7567989996874023
391 1 1 1.0 0.6401376155197925 -0.1357387596309783 0.7561738043138481
392 1 1 1.0 -0.3807468369105049 0.5330836198112191 0.7555486089402939
393 1 1 1.0 -0.07942919159040836 -0.6509851328348717 0.7549234135667396
394 1 1 1.0 0.4988490564469297 0.4268299625291008 0.7542982181931854
395 1 1 1.0 -0.6568724597068385 0.022260870436882605 0.7536730228196311
396 1 1 1.0 0.46983174207528905 -0.4606268595264964 0.7530478274460769
397 1 1 1.0 -0.03532867334434935 0.657732519786566 0.7524226320725227
398 1 1 1.0 -0.41869471217705284 -0.5094068630945557 0.7517974366989684
399 1 1 1.0 0.6535368803259802 0.09289677021263576 0.7511722413254142
400 1 1 1.0 -0.5452350708452042 0.37336021391326885 0.75054704595186
401 1 1 1.0 0.1499990286296982 -0.6442961348909026 0.7499218505783057
402 1 1 1.0 0.3249586163572028 0.5770237604762771 0.7492966552047515
403 1 1 1.0 -0.6300599836180437 -0.20619277940183645 0.7486714598311972
404 1 1 1.0 0.6045103643269706 -0.27385033440227796 0.748046264457643
405 1 1 1.0 -0.2610405205134725 0.6109170092076771 0.7474210690840888
406 1 1 1.0 -0.2204182513819765 -0.6274645149063263 0.7467958737105345
407 1 1 1.0 0.5869941492184152 0.3141133355549864 0.7461706783369804
408 1 1 1.0 -0.6456899657952306 0.16506483848532244 0.745545482963426
409 1 1 1.0 0.36499425895442 -0.5584558676093719 0.7449202875898718
410 1 1 1.0 0.1082091101899149 0.6590262545412058 0.7442950922163176
411 1 1 1.0 -0.5255030308391981 -0.4132815615396973 0.7436698968427633
412 1 1 1.0 0.6673500935762929 -0.05028343884666984 0.7430447014692092
413 1 1 1.0 -0.4585919304837523 0.48837149616236736 0.7424195060956549
414 1 1 1.0 0.008269747262738951 -0.6705764772645504 0.7417943107221007
415 1 1 1.0 0.44733042204227863 0.5005635184159248 0.7411691153485465
416 1 1 1.0 -0.6686594953623732 -0.06700135707438251 0.7405439199749921
417 1 1 1.0 0.5388588374141325 -0.40268031281013844 0.7399187246014379
418 1 1 1.0 -0.12545909496973698 0.6615928454352833 0.7392935292278837
419 1 1 1.0 -0.3547508118206405 -0.5731674747170024 0.7386683338543294
420 1 1 1.0 0.6494100391015175 0.18319095735219212 0.7380431384807753
421 1 1 1.0 -0.6032086083051598 0.3038982593732116 0.737417943107221
422 1 1 1.0 0.23974874044587954 -0.6321842993476567 0.7367927477336668