# Generated using make_nodes_plate.py (hexagonal lattice sampling)

1150 atoms
 1 atom types

-2.5 2.5 xlo xhi
-2.5 2.5 ylo yhi
-0.5 0.5 zlo zhi

Atoms

1 1 1 1.0 -2.5 -2.424192636759 -0.466536090467
2 1 1 1.0 -2.5 -2.424192636759 0.0
3 1 1 1.0 -2.5 -2.424192636759 0.466536090467
4 1 1 1.0 -2.5 -2.289515268051 -0.233268045233
5 1 1 1.0 -2.5 -2.289515268051 0.233268045233
6 1 1 1.0 -2.5 -2.154837899342 -0.466536090467
7 1 1 1.0 -2.5 -2.154837899342 0.0
8 1 1 1.0 -2.5 -2.154837899342 0.466536090467
9 1 1 1.0 -2.5 -2.020160530633 -0.233268045233
10 1 1 1.0 -2.5 -2.020160530633 0.233268045233
11 1 1 1.0 -2.5 -1.885483161924 -0.466536090467
12 1 1 1.0 -2.5 -1.885483161924 0.0
13 1 1 1.0 -2.5 -1.885483161924 0.466536090467
14 1 1 1.0 -2.5 -1.750805793215 -0.233268045233
15 1 1 1.0 -2.5 -1.750805793215 0.233268045233
16 1 1 1.0 -2.5 -1.616128424506 -0.466536090467
17 1 1 1.0 -2.5 -1.616128424506 0.0
18 1 1 1.0 -2.5 -1.616128424506 0.466536090467
19 1 1 1.0 -2.5 -1.481451055797 -0.233268045233
20 1 1 1.0 -2.5 -1.481451055797 0.233268045233
21 1 1 1.0 -2.5 -1.346773687089 -0.466536090467
22 1 1 1.0 -2.5 -1.346773687089 0.0
23 1 1 1.0 -2.5 -1.346773687089 0.466536090467
24 1 1 1.0 -2.5 -1.21209631838 -0.233268045233
25 1 1 1.0 -2.5 -1.21209631838 0.233268045233
26 1 1 1.0 -2.5 -1.077418949671 -0.466536090467
27 1 1 1.0 -2.5 -1.077418949671 0.0
28 1 1 1.0 -2.5 -1.077418949671 0.466536090467
29 1 1 1.0 -2.5 -0.942741580962 -0.233268045233
30 1 1 1.0 -2.5 -0.942741580962 0.233268045233
31 1 1 1.0 -2.5 -0.808064212253 -0.466536090467
32 1 1 1.0 -2.5 -0.808064212253 0.0
33 1 1 1.0 -2.5 -0.808064212253 0.466536090467
34 1 1 1.0 -2.5 -0.673386843544 -0.233268045233
35 1 1 1.0 -2.5 -0.673386843544 0.233268045233
36 1 1 1.0 -2.5 -0.538709474835 -0.466536090467
37 1 1 1.0 -2.5 -0.538709474835 0.0
38 1 1 1.0 -2.5 -0.538709474835 0.466536090467
39 1 1 1.0 -2.5 -0.404032106127 -0.233268045233
40 1 1 1.0 -2.5 -0.404032106127 0.233268045233
41 1 1 1.0 -2.5 -0.269354737418 -0.466536090467
42 1 1 1.0 -2.5 -0.269354737418 0.0
43 1 1 1.0 -2.5 -0.269354737418 0.466536090467
44 1 1 1.0 -2.5 -0.134677368709 -0.233268045233
45 1 1 1.0 -2.5 -0.134677368709 0.233268045233
46 1 1 1.0 -2.5 0.0 -0.466536090467
47 1 1 1.0 -2.5 0.0 0.0
48 1 1 1.0 -2.5 0.0 0.466536090467
49 1 1 1.0 -2.5 0.134677368709 -0.233268045233
50 1 1 1.0 -2.5 0.134677368709 0.233268045233
51 1 1 1.0 -2.5 0.269354737418 -0.466536090467
52 1 1 1.0 -2.5 0.269354737418 0.0
53 1 1 1.0 -2.5 0.269354737418 0.466536090467
54 1 1 1.0 -2.5 0.404032106127 -0.233268045233
55 1 1 1.0 -2.5 0.404032106127 0.233268045233
56 1 1 1.0 -2.5 0.538709474835 -0.466536090467
57 1 1 1.0 -2.5 0.538709474835 0.0
58 1 1 1.0 -2.5 0.538709474835 0.466536090467
59 1 1 1.0 -2.5 0.673386843544 -0.233268045233
60 1 1 1.0 -2.5 0.673386843544 0.233268045233
61 1 1 1.0 -2.5 0.808064212253 -0.466536090467
62 1 1 1.0 -2.5 0.808064212253 0.0
63 1 1 1.0 -2.5 0.808064212253 0.466536090467
64 1 1 1.0 -2.5 0.942741580962 -0.233268045233
65 1 1 1.0 -2.5 0.942741580962 0.233268045233
66 1 1 1.0 -2.5 1.077418949671 -0.466536090467
67 1 1 1.0 -2.5 1.077418949671 0.0
68 1 1 1.0 -2.5 1.077418949671 0.466536090467
69 1 1 1.0 -2.5 1.21209631838 -0.233268045233
70 1 1 1.0 -2.5 1.21209631838 0.233268045233
71 1 1 1.0 -2.5 1.346773687089 -0.466536090467
72 1 1 1.0 -2.5 1.346773687089 0.0
73 1 1 1.0 -2.5 1.346773687089 0.466536090467
74 1 1 1.0 -2.5 1.481451055797 -0.233268045233
75 1 1 1.0 -2.5 1.481451055797 0.233268045233
76 1 1 1.0 -2.5 1.616128424506 -0.466536090467
77 1 1 1.0 -2.5 1.616128424506 0.0
78 1 1 1.0 -2.5 1.616128424506 0.466536090467
79 1 1 1.0 -2.5 1.750805793215 -0.233268045233
80 1 1 1.0 -2.5 1.750805793215 0.233268045233
81 1 1 1.0 -2.5 1.885483161924 -0.466536090467
82 1 1 1.0 -2.5 1.885483161924 0.0
83 1 1 1.0 -2.5 1.885483161924 0.466536090467
84 1 1 1.0 -2.5 2.020160530633 -0.233268045233
85 1 1 1.0 -2.5 2.020160530633 0.233268045233
86 1 1 1.0 -2.5 2.154837899342 -0.466536090467
87 1 1 1.0 -2.5 2.154837899342 0.0
88 1 1 1.0 -2.5 2.154837899342 0.466536090467
89 1 1 1.0 -2.5 2.289515268051 -0.233268045233
90 1 1 1.0 -2.5 2.289515268051 0.233268045233
91 1 1 1.0 -2.5 2.424192636759 -0.466536090467
92 1 1 1.0 -2.5 2.424192636759 0.0
93 1 1 1.0 -2.5 2.424192636759 0.466536090467
94 1 1 1.0 -2.424192636759 -2.5 -0.466536090467
95 1 1 1.0 -2.424192636759 -2.5 0.0
96 1 1 1.0 -2.424192636759 -2.5 0.466536090467
97 1 1 1.0 -2.424192636759 -2.332680452334 -0.5
98 1 1 1.0 -2.424192636759 -2.332680452334 0.5
99 1 1 1.0 -2.424192636759 -1.866144361867 -0.5
100 1 1 1.0 -2.424192636759 -1.866144361867 0.5
101 1 1 1.0 -2.424192636759 -1.399608271401 -0.5
102 1 1 1.0 -2.424192636759 -1.399608271401 0.5
103 1 1 1.0 -2.424192636759 -0.933072180934 -0.5
104 1 1 1.0 -2.424192636759 -0.933072180934 0.5
105 1 1 1.0 -2.424192636759 -0.466536090467 -0.5
106 1 1 1.0 -2.424192636759 -0.466536090467 0.5
107 1 1 1.0 -2.424192636759 0.0 -0.5
108 1 1 1.0 -2.424192636759 0.0 0.5
109 1 1 1.0 -2.424192636759 0.466536090467 -0.5
110 1 1 1.0 -2.424192636759 0.466536090467 0.5
111 1 1 1.0 -2.424192636759 0.933072180934 -0.5
112 1 1 1.0 -2.424192636759 0.933072180934 0.5
113 1 1 1.0 -2.424192636759 1.399608271401 -0.5
114 1 1 1.0 -2.424192636759 1.399608271401 0.5
115 1 1 1.0 -2.424192636759 1.866144361867 -0.5
116 1 1 1.0 -2.424192636759 1.866144361867 0.5
117 1 1 1.0 -2.424192636759 2.332680452334 -0.5
118 1 1 1.0 -2.424192636759 2.332680452334 0.5
119 1 1 1.0 -2.424192636759 2.5 -0.466536090467
120 1 1 1.0 -2.424192636759 2.5 0.0
121 1 1 1.0 -2.424192636759 2.5 0.466536090467
122 1 1 1.0 -2.289515268051 -2.5 -0.233268045233
123 1 1 1.0 -2.289515268051 -2.5 0.233268045233
124 1 1 1.0 -2.289515268051 -2.099412407101 -0.5
125 1 1 1.0 -2.289515268051 -2.099412407101 0.5
126 1 1 1.0 -2.289515268051 -1.632876316634 -0.5
127 1 1 1.0 -2.289515268051 -1.632876316634 0.5
128 1 1 1.0 -2.289515268051 -1.166340226167 -0.5
129 1 1 1.0 -2.289515268051 -1.166340226167 0.5
130 1 1 1.0 -2.289515268051 -0.6998041357 -0.5
131 1 1 1.0 -2.289515268051 -0.6998041357 0.5
132 1 1 1.0 -2.289515268051 -0.233268045233 -0.5
133 1 1 1.0 -2.289515268051 -0.233268045233 0.5
134 1 1 1.0 -2.289515268051 0.233268045233 -0.5
135 1 1 1.0 -2.289515268051 0.233268045233 0.5
136 1 1 1.0 -2.289515268051 0.6998041357 -0.5
137 1 1 1.0 -2.289515268051 0.6998041357 0.5
138 1 1 1.0 -2.289515268051 1.166340226167 -0.5
139 1 1 1.0 -2.289515268051 1.166340226167 0.5
140 1 1 1.0 -2.289515268051 1.632876316634 -0.5
141 1 1 1.0 -2.289515268051 1.632876316634 0.5
142 1 1 1.0 -2.289515268051 2.099412407101 -0.5
143 1 1 1.0 -2.289515268051 2.099412407101 0.5
144 1 1 1.0 -2.289515268051 2.5 -0.233268045233
145 1 1 1.0 -2.289515268051 2.5 0.233268045233
146 1 1 1.0 -2.154837899342 -2.5 -0.466536090467
147 1 1 1.0 -2.154837899342 -2.5 0.0
148 1 1 1.0 -2.154837899342 -2.5 0.466536090467
149 1 1 1.0 -2.154837899342 -2.332680452334 -0.5
150 1 1 1.0 -2.154837899342 -2.332680452334 0.5
151 1 1 1.0 -2.154837899342 -1.866144361867 -0.5
152 1 1 1.0 -2.154837899342 -1.866144361867 0.5
153 1 1 1.0 -2.154837899342 -1.399608271401 -0.5
154 1 1 1.0 -2.154837899342 -1.399608271401 0.5
155 1 1 1.0 -2.154837899342 -0.933072180934 -0.5
156 1 1 1.0 -2.154837899342 -0.933072180934 0.5
157 1 1 1.0 -2.154837899342 -0.466536090467 -0.5
158 1 1 1.0 -2.154837899342 -0.466536090467 0.5
159 1 1 1.0 -2.154837899342 0.0 -0.5
160 1 1 1.0 -2.154837899342 0.0 0.5
161 1 1 1.0 -2.154837899342 0.466536090467 -0.5
162 1 1 1.0 -2.154837899342 0.466536090467 0.5
163 1 1 1.0 -2.154837899342 0.933072180934 -0.5
164 1 1 1.0 -2.154837899342 0.933072180934 0.5
165 1 1 1.0 -2.154837899342 1.399608271401 -0.5
166 1 1 1.0 -2.154837899342 1.399608271401 0.5
167 1 1 1.0 -2.154837899342 1.866144361867 -0.5
168 1 1 1.0 -2.154837899342 1.866144361867 0.5
169 1 1 1.0 -2.154837899342 2.332680452334 -0.5
170 1 1 1.0 -2.154837899342 2.332680452334 0.5
171 1 1 1.0 -2.154837899342 2.5 -0.466536090467
172 1 1 1.0 -2.154837899342 2.5 0.0
173 1 1 1.0 -2.154837899342 2.5 0.466536090467
174 1 1 1.0 -2.020160530633 -2.5 -0.233268045233
175 1 1 1.0 -2.020160530633 -2.5 0.233268045233
176 1 1 1.0 -2.020160530633 -2.099412407101 -0.5
177 1 1 1.0 -2.020160530633 -2.099412407101 0.5
178 1 1 1.0 -2.020160530633 -1.632876316634 -0.5
179 1 1 1.0 -2.020160530633 -1.632876316634 0.5
180 1 1 1.0 -2.020160530633 -1.166340226167 -0.5
181 1 1 1.0 -2.020160530633 -1.166340226167 0.5
182 1 1 1.0 -2.020160530633 -0.6998041357 -0.5
183 1 1 1.0 -2.020160530633 -0.6998041357 0.5
184 1 1 1.0 -2.020160530633 -0.233268045233 -0.5
185 1 1 1.0 -2.020160530633 -0.233268045233 0.5
186 1 1 1.0 -2.020160530633 0.233268045233 -0.5
187 1 1 1.0 -2.020160530633 0.233268045233 0.5
188 1 1 1.0 -2.020160530633 0.6998041357 -0.5
189 1 1 1.0 -2.020160530633 0.6998041357 0.5
190 1 1 1.0 -2.020160530633 1.166340226167 -0.5
191 1 1 1.0 -2.020160530633 1.166340226167 0.5
192 1 1 1.0 -2.020160530633 1.632876316634 -0.5
193 1 1 1.0 -2.020160530633 1.632876316634 0.5
194 1 1 1.0 -2.020160530633 2.099412407101 -0.5
195 1 1 1.0 -2.020160530633 2.099412407101 0.5
196 1 1 1.0 -2.020160530633 2.5 -0.233268045233
197 1 1 1.0 -2.020160530633 2.5 0.233268045233
198 1 1 1.0 -1.885483161924 -2.5 -0.466536090467
199 1 1 1.0 -1.885483161924 -2.5 0.0
200 1 1 1.0 -1.885483161924 -2.5 0.466536090467
201 1 1 1.0 -1.885483161924 -2.332680452334 -0.5
202 1 1 1.0 -1.885483161924 -2.332680452334 0.5
203 1 1 1.0 -1.885483161924 -1.866144361867 -0.5
204 1 1 1.0 -1.885483161924 -1.866144361867 0.5
205 1 1 1.0 -1.885483161924 -1.399608271401 -0.5
206 1 1 1.0 -1.885483161924 -1.399608271401 0.5
207 1 1 1.0 -1.885483161924 -0.933072180934 -0.5
208 1 1 1.0 -1.885483161924 -0.933072180934 0.5
209 1 1 1.0 -1.885483161924 -0.466536090467 -0.5
210 1 1 1.0 -1.885483161924 -0.466536090467 0.5
211 1 1 1.0 -1.885483161924 0.0 -0.5
212 1 1 1.0 -1.885483161924 0.0 0.5
213 1 1 1.0 -1.885483161924 0.466536090467 -0.5
214 1 1 1.0 -1.885483161924 0.466536090467 0.5
215 1 1 1.0 -1.885483161924 0.933072180934 -0.5
216 1 1 1.0 -1.885483161924 0.933072180934 0.5
217 1 1 1.0 -1.885483161924 1.399608271401 -0.5
218 1 1 1.0 -1.885483161924 1.399608271401 0.5
219 1 1 1.0 -1.885483161924 1.866144361867 -0.5
220 1 1 1.0 -1.885483161924 1.866144361867 0.5
221 1 1 1.0 -1.885483161924 2.332680452334 -0.5
222 1 1 1.0 -1.885483161924 2.332680452334 0.5
223 1 1 1.0 -1.885483161924 2.5 -0.466536090467
224 1 1 1.0 -1.885483161924 2.5 0.0
225 1 1 1.0 -1.885483161924 2.5 0.466536090467
226 1 1 1.0 -1.750805793215 -2.5 -0.233268045233
227 1 1 1.0 -1.750805793215 -2.5 0.233268045233
228 1 1 1.0 -1.750805793215 -2.099412407101 -0.5
229 1 1 1.0 -1.750805793215 -2.099412407101 0.5
230 1 1 1.0 -1.750805793215 -1.632876316634 -0.5
231 1 1 1.0 -1.750805793215 -1.632876316634 0.5
232 1 1 1.0 -1.750805793215 -1.166340226167 -0.5
233 1 1 1.0 -1.750805793215 -1.166340226167 0.5
234 1 1 1.0 -1.750805793215 -0.6998041357 -0.5
235 1 1 1.0 -1.750805793215 -0.6998041357 0.5
236 1 1 1.0 -1.750805793215 -0.233268045233 -0.5
237 1 1 1.0 -1.750805793215 -0.233268045233 0.5
238 1 1 1.0 -1.750805793215 0.233268045233 -0.5
239 1 1 1.0 -1.750805793215 0.233268045233 0.5
240 1 1 1.0 -1.750805793215 0.6998041357 -0.5
241 1 1 1.0 -1.750805793215 0.6998041357 0.5
242 1 1 1.0 -1.750805793215 1.166340226167 -0.5
243 1 1 1.0 -1.750805793215 1.166340226167 0.5
244 1 1 1.0 -1.750805793215 1.632876316634 -0.5
245 1 1 1.0 -1.750805793215 1.632876316634 0.5
246 1 1 1.0 -1.750805793215 2.099412407101 -0.5
247 1 1 1.0 -1.750805793215 2.099412407101 0.5
248 1 1 1.0 -1.750805793215 2.5 -0.233268045233
249 1 1 1.0 -1.750805793215 2.5 0.233268045233
250 1 1 1.0 -1.616128424506 -2.5 -0.466536090467
251 1 1 1.0 -1.616128424506 -2.5 0.0
252 1 1 1.0 -1.616128424506 -2.5 0.466536090467
253 1 1 1.0 -1.616128424506 -2.332680452334 -0.5
254 1 1 1.0 -1.616128424506 -2.332680452334 0.5
255 1 1 1.0 -1.616128424506 -1.866144361867 -0.5
256 1 1 1.0 -1.616128424506 -1.866144361867 0.5
257 1 1 1.0 -1.616128424506 -1.399608271401 -0.5
258 1 1 1.0 -1.616128424506 -1.399608271401 0.5
259 1 1 1.0 -1.616128424506 -0.933072180934 -0.5
260 1 1 1.0 -1.616128424506 -0.933072180934 0.5
261 1 1 1.0 -1.616128424506 -0.466536090467 -0.5
262 1 1 1.0 -1.616128424506 -0.466536090467 0.5
263 1 1 1.0 -1.616128424506 0.0 -0.5
264 1 1 1.0 -1.616128424506 0.0 0.5
265 1 1 1.0 -1.616128424506 0.466536090467 -0.5
266 1 1 1.0 -1.616128424506 0.466536090467 0.5
267 1 1 1.0 -1.616128424506 0.933072180934 -0.5
268 1 1 1.0 -1.616128424506 0.933072180934 0.5
269 1 1 1.0 -1.616128424506 1.399608271401 -0.5
270 1 1 1.0 -1.616128424506 1.399608271401 0.5
271 1 1 1.0 -1.616128424506 1.866144361867 -0.5
272 1 1 1.0 -1.616128424506 1.866144361867 0.5
273 1 1 1.0 -1.616128424506 2.332680452334 -0.5
274 1 1 1.0 -1.616128424506 2.332680452334 0.5
275 1 1 1.0 -1.616128424506 2.5 -0.466536090467
276 1 1 1.0 -1.616128424506 2.5 0.0
277 1 1 1.0 -1.616128424506 2.5 0.466536090467
278 1 1 1.0 -1.481451055797 -2.5 -0.233268045233
279 1 1 1.0 -1.481451055797 -2.5 0.233268045233
280 1 1 1.0 -1.481451055797 -2.099412407101 -0.5
281 1 1 1.0 -1.481451055797 -2.099412407101 0.5
282 1 1 1.0 -1.481451055797 -1.632876316634 -0.5
283 1 1 1.0 -1.481451055797 -1.632876316634 0.5
284 1 1 1.0 -1.481451055797 -1.166340226167 -0.5
285 1 1 1.0 -1.481451055797 -1.166340226167 0.5
286 1 1 1.0 -1.481451055797 -0.6998041357 -0.5
287 1 1 1.0 -1.481451055797 -0.6998041357 0.5
288 1 1 1.0 -1.481451055797 -0.233268045233 -0.5
289 1 1 1.0 -1.481451055797 -0.233268045233 0.5
290 1 1 1.0 -1.481451055797 0.233268045233 -0.5
291 1 1 1.0 -1.481451055797 0.233268045233 0.5
292 1 1 1.0 -1.481451055797 0.6998041357 -0.5
293 1 1 1.0 -1.481451055797 0.6998041357 0.5
294 1 1 1.0 -1.481451055797 1.166340226167 -0.5
295 1 1 1.0 -1.481451055797 1.166340226167 0.5
296 1 1 1.0 -1.481451055797 1.632876316634 -0.5
297 1 1 1.0 -1.481451055797 1.632876316634 0.5
298 1 1 1.0 -1.481451055797 2.099412407101 -0.5
299 1 1 1.0 -1.481451055797 2.099412407101 0.5
300 1 1 1.0 -1.481451055797 2.5 -0.233268045233
301 1 1 1.0 -1.481451055797 2.5 0.233268045233
302 1 1 1.0 -1.346773687089 -2.5 -0.466536090467
303 1 1 1.0 -1.346773687089 -2.5 0.0
304 1 1 1.0 -1.346773687089 -2.5 0.466536090467
305 1 1 1.0 -1.346773687089 -2.332680452334 -0.5
306 1 1 1.0 -1.346773687089 -2.332680452334 0.5
307 1 1 1.0 -1.346773687089 -1.866144361867 -0.5
308 1 1 1.0 -1.346773687089 -1.866144361867 0.5
309 1 1 1.0 -1.346773687089 -1.399608271401 -0.5
310 1 1 1.0 -1.346773687089 -1.399608271401 0.5
311 1 1 1.0 -1.346773687089 -0.933072180934 -0.5
312 1 1 1.0 -1.346773687089 -0.933072180934 0.5
313 1 1 1.0 -1.346773687089 -0.466536090467 -0.5
314 1 1 1.0 -1.346773687089 -0.466536090467 0.5
315 1 1 1.0 -1.346773687089 0.0 -0.5
316 1 1 1.0 -1.346773687089 0.0 0.5
317 1 1 1.0 -1.346773687089 0.466536090467 -0.5
318 1 1 1.0 -1.346773687089 0.466536090467 0.5
319 1 1 1.0 -1.346773687089 0.933072180934 -0.5
320 1 1 1.0 -1.346773687089 0.933072180934 0.5
321 1 1 1.0 -1.346773687089 1.399608271401 -0.5
322 1 1 1.0 -1.346773687089 1.399608271401 0.5
323 1 1 1.0 -1.346773687089 1.866144361867 -0.5
324 1 1 1.0 -1.346773687089 1.866144361867 0.5
325 1 1 1.0 -1.346773687089 2.332680452334 -0.5
326 1 1 1.0 -1.346773687089 2.332680452334 0.5
327 1 1 1.0 -1.346773687089 2.5 -0.466536090467
328 1 1 1.0 -1.346773687089 2.5 0.0
329 1 1 1.0 -1.346773687089 2.5 0.466536090467
330 1 1 1.0 -1.21209631838 -2.5 -0.233268045233
331 1 1 1.0 -1.21209631838 -2.5 0.233268045233
332 1 1 1.0 -1.21209631838 -2.099412407101 -0.5
333 1 1 1.0 -1.21209631838 -2.099412407101 0.5
334 1 1 1.0 -1.21209631838 -1.632876316634 -0.5
335 1 1 1.0 -1.21209631838 -1.632876316634 0.5
336 1 1 1.0 -1.21209631838 -1.166340226167 -0.5
337 1 1 1.0 -1.21209631838 -1.166340226167 0.5
338 1 1 1.0 -1.21209631838 -0.6998041357 -0.5
339 1 1 1.0 -1.21209631838 -0.6998041357 0.5
340 1 1 1.0 -1.21209631838 -0.233268045233 -0.5
341 1 1 1.0 -1.21209631838 -0.233268045233 0.5
342 1 1 1.0 -1.21209631838 0.233268045233 -0.5
343 1 1 1.0 -1.21209631838 0.233268045233 0.5
344 1 1 1.0 -1.21209631838 0.6998041357 -0.5
345 1 1 1.0 -1.21209631838 0.6998041357 0.5
346 1 1 1.0 -1.21209631838 1.166340226167 -0.5
347 1 1 1.0 -1.21209631838 1.166340226167 0.5
348 1 1 1.0 -1.21209631838 1.632876316634 -0.5
349 1 1 1.0 -1.21209631838 1.632876316634 0.5
350 1 1 1.0 -1.21209631838 2.099412407101 -0.5
351 1 1 1.0 -1.21209631838 2.099412407101 0.5
352 1 1 1.0 -1.21209631838 2.5 -0.233268045233
353 1 1 1.0 -1.21209631838 2.5 0.233268045233
354 1 1 1.0 -1.077418949671 -2.5 -0.466536090467
355 1 1 1.0 -1.077418949671 -2.5 0.0
356 1 1 1.0 -1.077418949671 -2.5 0.466536090467
357 1 1 1.0 -1.077418949671 -2.332680452334 -0.5
358 1 1 1.0 -1.077418949671 -2.332680452334 0.5
359 1 1 1.0 -1.077418949671 -1.866144361867 -0.5
360 1 1 1.0 -1.077418949671 -1.866144361867 0.5
361 1 1 1.0 -1.077418949671 -1.399608271401 -0.5
362 1 1 1.0 -1.077418949671 -1.399608271401 0.5
363 1 1 1.0 -1.077418949671 -0.933072180934 -0.5
364 1 1 1.0 -1.077418949671 -0.933072180934 0.5
365 1 1 1.0 -1.077418949671 -0.466536090467 -0.5
366 1 1 1.0 -1.077418949671 -0.466536090467 0.5
367 1 1 1.0 -1.077418949671 0.0 -0.5
368 1 1 1.0 -1.077418949671 0.0 0.5
369 1 1 1.0 -1.077418949671 0.466536090467 -0.5
370 1 1 1.0 -1.077418949671 0.466536090467 0.5
371 1 1 1.0 -1.077418949671 0.933072180934 -0.5
372 1 1 1.0 -1.077418949671 0.933072180934 0.5
373 1 1 1.0 -1.077418949671 1.399608271401 -0.5
374 1 1 1.0 -1.077418949671 1.399608271401 0.5
375 1 1 1.0 -1.077418949671 1.866144361867 -0.5
376 1 1 1.0 -1.077418949671 1.866144361867 0.5
377 1 1 1.0 -1.077418949671 2.332680452334 -0.5
378 1 1 1.0 -1.077418949671 2.332680452334 0.5
379 1 1 1.0 -1.077418949671 2.5 -0.466536090467
380 1 1 1.0 -1.077418949671 2.5 0.0
381 1 1 1.0 -1.077418949671 2.5 0.466536090467
382 1 1 1.0 -0.942741580962 -2.5 -0.233268045233
383 1 1 1.0 -0.942741580962 -2.5 0.233268045233
384 1 1 1.0 -0.942741580962 -2.099412407101 -0.5
385 1 1 1.0 -0.942741580962 -2.099412407101 0.5
386 1 1 1.0 -0.942741580962 -1.632876316634 -0.5
387 1 1 1.0 -0.942741580962 -1.632876316634 0.5
388 1 1 1.0 -0.942741580962 -1.166340226167 -0.5
389 1 1 1.0 -0.942741580962 -1.166340226167 0.5
390 1 1 1.0 -0.942741580962 -0.6998041357 -0.5
391 1 1 1.0 -0.942741580962 -0.6998041357 0.5
392 1 1 1.0 -0.942741580962 -0.233268045233 -0.5
393 1 1 1.0 -0.942741580962 -0.233268045233 0.5
394 1 1 1.0 -0.942741580962 0.233268045233 -0.5
395 1 1 1.0 -0.942741580962 0.233268045233 0.5
396 1 1 1.0 -0.942741580962 0.6998041357 -0.5
397 1 1 1.0 -0.942741580962 0.6998041357 0.5
398 1 1 1.0 -0.942741580962 1.166340226167 -0.5
399 1 1 1.0 -0.942741580962 1.166340226167 0.5
400 1 1 1.0 -0.942741580962 1.632876316634 -0.5
401 1 1 1.0 -0.942741580962 1.632876316634 0.5
402 1 1 1.0 -0.942741580962 2.099412407101 -0.5
403 1 1 1.0 -0.942741580962 2.099412407101 0.5
404 1 1 1.0 -0.942741580962 2.5 -0.233268045233
405 1 1 1.0 -0.942741580962 2.5 0.233268045233
406 1 1 1.0 -0.808064212253 -2.5 -0.466536090467
407 1 1 1.0 -0.808064212253 -2.5 0.0
408 1 1 1.0 -0.808064212253 -2.5 0.466536090467
409 1 1 1.0 -0.808064212253 -2.332680452334 -0.5
410 1 1 1.0 -0.808064212253 -2.332680452334 0.5
411 1 1 1.0 -0.808064212253 -1.866144361867 -0.5
412 1 1 1.0 -0.808064212253 -1.866144361867 0.5
413 1 1 1.0 -0.808064212253 -1.399608271401 -0.5
414 1 1 1.0 -0.808064212253 -1.399608271401 0.5
415 1 1 1.0 -0.808064212253 -0.933072180934 -0.5
416 1 1 1.0 -0.808064212253 -0.933072180934 0.5
417 1 1 1.0 -0.808064212253 -0.466536090467 -0.5
418 1 1 1.0 -0.808064212253 -0.466536090467 0.5
419 1 1 1.0 -0.808064212253 0.0 -0.5
420 1 1 1.0 -0.808064212253 0.0 0.5
421 1 1 1.0 -0.808064212253 0.466536090467 -0.5
422 1 1 1.0 -0.808064212253 0.466536090467 0.5
423 1 1 1.0 -0.808064212253 0.933072180934 -0.5
424 1 1 1.0 -0.808064212253 0.933072180934 0.5
425 1 1 1.0 -0.808064212253 1.399608271401 -0.5
426 1 1 1.0 -0.808064212253 1.399608271401 0.5
427 1 1 1.0 -0.808064212253 1.866144361867 -0.5
428 1 1 1.0 -0.808064212253 1.866144361867 0.5
429 1 1 1.0 -0.808064212253 2.332680452334 -0.5
430 1 1 1.0 -0.808064212253 2.332680452334 0.5
431 1 1 1.0 -0.808064212253 2.5 -0.466536090467
432 1 1 1.0 -0.808064212253 2.5 0.0
433 1 1 1.0 -0.808064212253 2.5 0.466536090467
434 1 1 1.0 -0.673386843544 -2.5 -0.233268045233
435 1 1 1.0 -0.673386843544 -2.5 0.233268045233
436 1 1 1.0 -0.673386843544 -2.099412407101 -0.5
437 1 1 1.0 -0.673386843544 -2.099412407101 0.5
438 1 1 1.0 -0.673386843544 -1.632876316634 -0.5
439 1 1 1.0 -0.673386843544 -1.632876316634 0.5
440 1 1 1.0 -0.673386843544 -1.166340226167 -0.5
441 1 1 1.0 -0.673386843544 -1.166340226167 0.5
442 1 1 1.0 -0.673386843544 -0.6998041357 -0.5
443 1 1 1.0 -0.673386843544 -0.6998041357 0.5
444 1 1 1.0 -0.673386843544 -0.233268045233 -0.5
445 1 1 1.0 -0.673386843544 -0.233268045233 0.5
446 1 1 1.0 -0.673386843544 0.233268045233 -0.5
447 1 1 1.0 -0.673386843544 0.233268045233 0.5
448 1 1 1.0 -0.673386843544 0.6998041357 -0.5
449 1 1 1.0 -0.673386843544 0.6998041357 0.5
450 1 1 1.0 -0.673386843544 1.166340226167 -0.5
451 1 1 1.0 -0.673386843544 1.166340226167 0.5
452 1 1 1.0 -0.673386843544 1.632876316634 -0.5
453 1 1 1.0 -0.673386843544 1.632876316634 0.5
454 1 1 1.0 -0.673386843544 2.099412407101 -0.5
455 1 1 1.0 -0.673386843544 2.099412407101 0.5
456 1 1 1.0 -0.673386843544 2.5 -0.233268045233
457 1 1 1.0 -0.673386843544 2.5 0.233268045233
458 1 1 1.0 -0.538709474835 -2.5 -0.466536090467
459 1 1 1.0 -0.538709474835 -2.5 0.0
460 1 1 1.0 -0.538709474835 -2.5 0.466536090467
461 1 1 1.0 -0.538709474835 -2.332680452334 -0.5
462 1 1 1.0 -0.538709474835 -2.332680452334 0.5
463 1 1 1.0 -0.538709474835 -1.866144361867 -0.5
464 1 1 1.0 -0.538709474835 -1.866144361867 0.5
465 1 1 1.0 -0.538709474835 -1.399608271401 -0.5
466 1 1 1.0 -0.538709474835 -1.399608271401 0.5
467 1 1 1.0 -0.538709474835 -0.933072180934 -0.5
468 1 1 1.0 -0.538709474835 -0.933072180934 0.5
469 1 1 1.0 -0.538709474835 -0.466536090467 -0.5
470 1 1 1.0 -0.538709474835 -0.466536090467 0.5
471 1 1 1.0 -0.538709474835 0.0 -0.5
472 1 1 1.0 -0.538709474835 0.0 0.5
473 1 1 1.0 -0.538709474835 0.466536090467 -0.5
474 1 1 1.0 -0.538709474835 0.466536090467 0.5
475 1 1 1.0 -0.538709474835 0.933072180934 -0.5
476 1 1 1.0 -0.538709474835 0.933072180934 0.5
477 1 1 1.0 -0.538709474835 1.399608271401 -0.5
478 1 1 1.0 -0.538709474835 1.399608271401 0.5
479 1 1 1.0 -0.538709474835 1.866144361867 -0.5
480 1 1 1.0 -0.538709474835 1.866144361867 0.5
481 1 1 1.0 -0.538709474835 2.332680452334 -0.5
482 1 1 1.0 -0.538709474835 2.332680452334 0.5
483 1 1 1.0 -0.538709474835 2.5 -0.466536090467
484 1 1 1.0 -0.538709474835 2.5 0.0
485 1 1 1.0 -0.538709474835 2.5 0.466536090467
486 1 1 1.0 -0.404032106127 -2.5 -0.233268045233
487 1 1 1.0 -0.404032106127 -2.5 0.233268045233
488 1 1 1.0 -0.404032106127 -2.099412407101 -0.5
489 1 1 1.0 -0.404032106127 -2.099412407101 0.5
490 1 1 1.0 -0.404032106127 -1.632876316634 -0.5
491 1 1 1.0 -0.404032106127 -1.632876316634 0.5
492 1 1 1.0 -0.404032106127 -1.166340226167 -0.5
493 1 1 1.0 -0.404032106127 -1.166340226167 0.5
494 1 1 1.0 -0.404032106127 -0.6998041357 -0.5
495 1 1 1.0 -0.404032106127 -0.6998041357 0.5
496 1 1 1.0 -0.404032106127 -0.233268045233 -0.5
497 1 1 1.0 -0.404032106127 -0.233268045233 0.5
498 1 1 1.0 -0.404032106127 0.233268045233 -0.5
499 1 1 1.0 -0.404032106127 0.233268045233 0.5
500 1 1 1.0 -0.404032106127 0.6998041357 -0.5
501 1 1 1.0 -0.404032106127 0.6998041357 0.5
502 1 1 1.0 -0.404032106127 1.166340226167 -0.5
503 1 1 1.0 -0.404032106127 1.166340226167 0.5
504 1 1 1.0 -0.404032106127 1.632876316634 -0.5
505 1 1 1.0 -0.404032106127 1.632876316634 0.5
506 1 1 1.0 -0.404032106127 2.099412407101 -0.5
507 1 1 1.0 -0.404032106127 2.099412407101 0.5
508 1 1 1.0 -0.404032106127 2.5 -0.233268045233
509 1 1 1.0 -0.404032106127 2.5 0.233268045233
510 1 1 1.0 -0.269354737418 -2.5 -0.466536090467
511 1 1 1.0 -0.269354737418 -2.5 0.0
512 1 1 1.0 -0.269354737418 -2.5 0.466536090467
513 1 1 1.0 -0.269354737418 -2.332680452334 -0.5
514 1 1 1.0 -0.269354737418 -2.332680452334 0.5
515 1 1 1.0 -0.269354737418 -1.866144361867 -0.5
516 1 1 1.0 -0.269354737418 -1.866144361867 0.5
517 1 1 1.0 -0.269354737418 -1.399608271401 -0.5
518 1 1 1.0 -0.269354737418 -1.399608271401 0.5
519 1 1 1.0 -0.269354737418 -0.933072180934 -0.5
520 1 1 1.0 -0.269354737418 -0.933072180934 0.5
521 1 1 1.0 -0.269354737418 -0.466536090467 -0.5
522 1 1 1.0 -0.269354737418 -0.466536090467 0.5
523 1 1 1.0 -0.269354737418 0.0 -0.5
524 1 1 1.0 -0.269354737418 0.0 0.5
525 1 1 1.0 -0.269354737418 0.466536090467 -0.5
526 1 1 1.0 -0.269354737418 0.466536090467 0.5
527 1 1 1.0 -0.269354737418 0.933072180934 -0.5
528 1 1 1.0 -0.269354737418 0.933072180934 0.5
529 1 1 1.0 -0.269354737418 1.399608271401 -0.5
530 1 1 1.0 -0.269354737418 1.399608271401 0.5
531 1 1 1.0 -0.269354737418 1.866144361867 -0.5
532 1 1 1.0 -0.269354737418 1.866144361867 0.5
533 1 1 1.0 -0.269354737418 2.332680452334 -0.5
534 1 1 1.0 -0.269354737418 2.332680452334 0.5
535 1 1 1.0 -0.269354737418 2.5 -0.466536090467
536 1 1 1.0 -0.269354737418 2.5 0.0
537 1 1 1.0 -0.269354737418 2.5 0.466536090467
538 1 1 1.0 -0.134677368709 -2.5 -0.233268045233
539 1 1 1.0 -0.134677368709 -2.5 0.233268045233
540 1 1 1.0 -0.134677368709 -2.099412407101 -0.5
541 1 1 1.0 -0.134677368709 -2.099412407101 0.5
542 1 1 1.0 -0.134677368709 -1.632876316634 -0.5
543 1 1 1.0 -0.134677368709 -1.632876316634 0.5
544 1 1 1.0 -0.134677368709 -1.166340226167 -0.5
545 1 1 1.0 -0.134677368709 -1.166340226167 0.5
546 1 1 1.0 -0.134677368709 -0.6998041357 -0.5
547 1 1 1.0 -0.134677368709 -0.6998041357 0.5
548 1 1 1.0 -0.134677368709 -0.233268045233 -0.5
549 1 1 1.0 -0.134677368709 -0.233268045233 0.5
550 1 1 1.0 -0.134677368709 0.233268045233 -0.5
551 1 1 1.0 -0.134677368709 0.233268045233 0.5
552 1 1 1.0 -0.134677368709 0.6998041357 -0.5
553 1 1 1.0 -0.134677368709 0.6998041357 0.5
554 1 1 1.0 -0.134677368709 1.166340226167 -0.5
555 1 1 1.0 -0.134677368709 1.166340226167 0.5
556 1 1 1.0 -0.134677368709 1.632876316634 -0.5
557 1 1 1.0 -0.134677368709 1.632876316634 0.5
558 1 1 1.0 -0.134677368709 2.099412407101 -0.5
559 1 1 1.0 -0.134677368709 2.099412407101 0.5
560 1 1 1.0 -0.134677368709 2.5 -0.233268045233
561 1 1 1.0 -0.134677368709 2.5 0.233268045233
562 1 1 1.0 0.0 -2.5 -0.466536090467
563 1 1 1.0 0.0 -2.5 0.0
564 1 1 1.0 0.0 -2.5 0.466536090467
565 1 1 1.0 0.0 -2.332680452334 -0.5
566 1 1 1.0 0.0 -2.332680452334 0.5
567 1 1 1.0 0.0 -1.866144361867 -0.5
568 1 1 1.0 0.0 -1.866144361867 0.5
569 1 1 1.0 0.0 -1.399608271401 -0.5
570 1 1 1.0 0.0 -1.399608271401 0.5
571 1 1 1.0 0.0 -0.933072180934 -0.5
572 1 1 1.0 0.0 -0.933072180934 0.5
573 1 1 1.0 0.0 -0.466536090467 -0.5
574 1 1 1.0 0.0 -0.466536090467 0.5
575 1 1 1.0 0.0 0.0 -0.5
576 1 1 1.0 0.0 0.0 0.5
577 1 1 1.0 0.0 0.466536090467 -0.5
578 1 1 1.0 0.0 0.466536090467 0.5
579 1 1 1.0 0.0 0.933072180934 -0.5
580 1 1 1.0 0.0 0.933072180934 0.5
581 1 1 1.0 0.0 1.399608271401 -0.5
582 1 1 1.0 0.0 1.399608271401 0.5
583 1 1 1.0 0.0 1.866144361867 -0.5
584 1 1 1.0 0.0 1.866144361867 0.5
585 1 1 1.0 0.0 2.332680452334 -0.5
586 1 1 1.0 0.0 2.332680452334 0.5
587 1 1 1.0 0.0 2.5 -0.466536090467
588 1 1 1.0 0.0 2.5 0.0
589 1 1 1.0 0.0 2.5 0.466536090467
590 1 1 1.0 0.134677368709 -2.5 -0.233268045233
591 1 1 1.0 0.134677368709 -2.5 0.233268045233
592 1 1 1.0 0.134677368709 -2.099412407101 -0.5
593 1 1 1.0 0.134677368709 -2.099412407101 0.5
594 1 1 1.0 0.134677368709 -1.632876316634 -0.5
595 1 1 1.0 0.134677368709 -1.632876316634 0.5
596 1 1 1.0 0.134677368709 -1.166340226167 -0.5
597 1 1 1.0 0.134677368709 -1.166340226167 0.5
598 1 1 1.0 0.134677368709 -0.6998041357 -0.5
599 1 1 1.0 0.134677368709 -0.6998041357 0.5
600 1 1 1.0 0.134677368709 -0.233268045233 -0.5
601 1 1 1.0 0.134677368709 -0.233268045233 0.5
602 1 1 1.0 0.134677368709 0.233268045233 -0.5
603 1 1 1.0 0.134677368709 0.233268045233 0.5
604 1 1 1.0 0.134677368709 0.6998041357 -0.5
605 1 1 1.0 0.134677368709 0.6998041357 0.5
606 1 1 1.0 0.134677368709 1.166340226167 -0.5
607 1 1 1.0 0.134677368709 1.166340226167 0.5
608 1 1 1.0 0.134677368709 1.632876316634 -0.5
609 1 1 1.0 0.134677368709 1.632876316634 0.5
610 1 1 1.0 0.134677368709 2.099412407101 -0.5
611 1 1 1.0 0.134677368709 2.099412407101 0.5
612 1 1 1.0 0.134677368709 2.5 -0.233268045233
613 1 1 1.0 0.134677368709 2.5 0.233268045233
614 1 1 1.0 0.269354737418 -2.5 -0.466536090467
615 1 1 1.0 0.269354737418 -2.5 0.0
616 1 1 1.0 0.269354737418 -2.5 0.466536090467
617 1 1 1.0 0.269354737418 -2.332680452334 -0.5
618 1 1 1.0 0.269354737418 -2.332680452334 0.5
619 1 1 1.0 0.269354737418 -1.866144361867 -0.5
620 1 1 1.0 0.269354737418 -1.866144361867 0.5
621 1 1 1.0 0.269354737418 -1.399608271401 -0.5
622 1 1 1.0 0.269354737418 -1.399608271401 0.5
623 1 1 1.0 0.269354737418 -0.933072180934 -0.5
624 1 1 1.0 0.269354737418 -0.933072180934 0.5
625 1 1 1.0 0.269354737418 -0.466536090467 -0.5
626 1 1 1.0 0.269354737418 -0.466536090467 0.5
627 1 1 1.0 0.269354737418 0.0 -0.5
628 1 1 1.0 0.269354737418 0.0 0.5
629 1 1 1.0 0.269354737418 0.466536090467 -0.5
630 1 1 1.0 0.269354737418 0.466536090467 0.5
631 1 1 1.0 0.269354737418 0.933072180934 -0.5
632 1 1 1.0 0.269354737418 0.933072180934 0.5
633 1 1 1.0 0.269354737418 1.399608271401 -0.5
634 1 1 1.0 0.269354737418 1.399608271401 0.5
635 1 1 1.0 0.269354737418 1.866144361867 -0.5
636 1 1 1.0 0.269354737418 1.866144361867 0.5
637 1 1 1.0 0.269354737418 2.332680452334 -0.5
638 1 1 1.0 0.269354737418 2.332680452334 0.5
639 1 1 1.0 0.269354737418 2.5 -0.466536090467
640 1 1 1.0 0.269354737418 2.5 0.0
641 1 1 1.0 0.269354737418 2.5 0.466536090467
642 1 1 1.0 0.404032106127 -2.5 -0.233268045233
643 1 1 1.0 0.404032106127 -2.5 0.233268045233
644 1 1 1.0 0.404032106127 -2.099412407101 -0.5
645 1 1 1.0 0.404032106127 -2.099412407101 0.5
646 1 1 1.0 0.404032106127 -1.632876316634 -0.5
647 1 1 1.0 0.404032106127 -1.632876316634 0.5
648 1 1 1.0 0.404032106127 -1.166340226167 -0.5
649 1 1 1.0 0.404032106127 -1.166340226167 0.5
650 1 1 1.0 0.404032106127 -0.6998041357 -0.5