# Generated using make_nodes_sphere.py (uniform sphere sampling)

800 atoms
 1 atom types

-1.0 1.0 xlo xhi
-1.0 1.0 ylo yhi
-1.0 1.0 zlo zhi

Atoms

1 1 1 1.0 0.0 0.0 1.0
2 1 1 1.0 -0.05213981255620612 0.047764339360402835 0.9974968710888611
3 1 1 1.0 0.008737086109262592 -0.09955458981630051 0.9949937421777222
4 1 1 1.0 0.0744247393309574 0.0970738932630214 0.9924906132665833
5 1 1 1.0 -0.13899739524178123 -0.02458668207747979 0.9899874843554443
6 1 1 1.0 0.1330745422328651 -0.08465113089769212 0.9874843554443054
7 1 1 1.0 -0.044823661018886976 0.16674178477539148 0.9849812265331664
8 1 1 1.0 -0.0859029650739057 -0.16540093193362929 0.9824780976220275
9 1 1 1.0 0.1870383318135544 0.06830609879429206 0.9799749687108886
10 1 1 1.0 -0.1950978010005935 0.08053353614007788 0.9774718397997497
11 1 1 1.0 0.09423881181407781 -0.2013828670370726 0.9749687108886108
12 1 1 1.0 0.0697470704115409 0.22236465105367947 0.9724655819774718
13 1 1 1.0 -0.21046667649381567 -0.12196974103108324 0.9699624530663329
14 1 1 1.0 0.24712494219296177 -0.0543297253011701 0.967459324155194
15 1 1 1.0 -0.1509202977684608 0.21466859337498864 0.9649561952440551
16 1 1 1.0 -0.03488398828343326 -0.26919732997897394 0.9624530663329162
17 1 1 1.0 0.21423292184777268 0.180555733335976 0.9599499374217773
18 1 1 1.0 -0.28836332934531433 0.011924728998128393 0.9574468085106383
19 1 1 1.0 0.21037140962688952 -0.2093476505828623 0.9549436795994993
20 1 1 1.0 -0.014075663487657295 0.30439920023192407 0.9524405506883604
21 1 1 1.0 -0.20018330993410663 -0.2398865088558974 0.9499374217772215
22 1 1 1.0 0.3170930585028577 0.04266442253973757 0.9474342928660826
23 1 1 1.0 -0.2686416087607914 0.18691383423697988 0.9449311639549437
24 1 1 1.0 0.07339655160174124 -0.32625503057645866 0.9424280350438048
25 1 1 1.0 0.169728238023607 0.29619840656036794 0.9399249061326659
26 1 1 1.0 -0.33172375566219275 -0.10582892572545499 0.9374217772215269
27 1 1 1.0 0.3221406821270356 -0.14883716592372123 0.934918648310388
28 1 1 1.0 -0.1395178491268829 0.3333707680022905 0.932415519399249
29 1 1 1.0 -0.12447635555358999 -0.34607597854341876 0.9299123904881101
30 1 1 1.0 0.33110352236723767 0.1740187317999562 0.9274092615769712
31 1 1 1.0 -0.3676376796355906 0.09690811250505615 0.9249061326658323
32 1 1 1.0 0.20888711958307024 -0.3248674651863547 0.9224030037546933
33 1 1 1.0 0.06642142705372274 0.38648727571675623 0.9198998748435544
34 1 1 1.0 -0.3146473739309466 -0.24368061193081025 0.9173967459324155
35 1 1 1.0 0.40231667423506434 -0.03333111408523251 0.9148936170212766
36 1 1 1.0 -0.2779613676267623 0.3004680936692024 0.9123904881101377
37 1 1 1.0 0.0020237795690416153 -0.4148504524357279 0.9098873591989988
38 1 1 1.0 0.2823947493075751 0.31129899484004103 0.9073842302878599
39 1 1 1.0 -0.42384797538017044 -0.039282135091961046 0.9048811013767208
40 1 1 1.0 0.343273679951394 -0.2605324844650536 0.9023779724655819
41 1 1 1.0 -0.07806337039257777 0.4291053205692257 0.899874843554443
42 1 1 1.0 -0.23502576289046484 -0.37347944593496885 0.8973717146433041
43 1 1 1.0 0.430456963281521 0.11797040744256924 0.8948685857321652
44 1 1 1.0 -0.40152745473895307 0.20605726039977093 0.8923654568210263
45 1 1 1.0 0.1585929257579124 -0.42777718647251556 0.8898623279098874
46 1 1 1.0 0.17384637150501317 0.4270492841193398 0.8873591989987484
47 1 1 1.0 -0.4209811868258637 -0.19951084072751232 0.8848560700876095
48 1 1 1.0 0.4497001206961473 -0.1386473535380406 0.8823529411764706
49 1 1 1.0 -0.24029795272689758 0.4100258550041965 0.8798498122653317
50 1 1 1.0 -0.10074713114716807 -0.469161819389657 0.8773466833541927
51 1 1 1.0 0.3949102137444356 0.28052571776892 0.8748435544430538
52 1 1 1.0 -0.4851457859421698 0.0604627849619251 0.8723404255319149
53 1 1 1.0 0.3197670937772364 -0.37567550245487186 0.8698372966207759
54 1 1 1.0 0.018138749603447475 0.4973956446193058 0.867334167709637
55 1 1 1.0 -0.35240490156767523 -0.35760041901791434 0.8648310387984981
56 1 1 1.0 0.5056896578462752 0.02585625217651825 0.8623279098873592
57 1 1 1.0 -0.3936132811728508 0.32522289418725914 0.8598247809762203
58 1 1 1.0 0.07113251077652015 -0.5098428687458793 0.8573216520650814
59 1 1 1.0 0.29429426661522773 0.42740633723696464 0.8548185231539425
60 1 1 1.0 -0.5097089414842078 -0.11728283637337163 0.8523153942428034
61 1 1 1.0 0.4585970460338074 -0.2598227531624791 0.8498122653316645
62 1 1 1.0 -0.1638862393262358 0.5051816781097735 0.8473091364205256
63 1 1 1.0 -0.22204933429612905 -0.48682327677987614 0.8448060075093867
64 1 1 1.0 0.4961961942619897 0.21051175146538303 0.8423028785982478
65 1 1 1.0 -0.5117467588579616 0.18125020061738026 0.8397997496871089
66 1 1 1.0 0.2567223542720483 -0.48272973976559425 0.83729662077597
67 1 1 1.0 0.13773439842470062 0.5330563398278912 0.834793491864831
68 1 1 1.0 -0.46480215373954165 -0.3020789790990016 0.8322903629536921
69 1 1 1.0 0.5504710207364768 -0.09184117567491445 0.8297872340425532
70 1 1 1.0 -0.34614454399248706 0.44247594743799146 0.8272841051314143
71 1 1 1.0 -0.04393705000242662 -0.563742739999562 0.8247809762202754
72 1 1 1.0 0.4158560116041382 0.388487991368268 0.8222778473091364
73 1 1 1.0 -0.5726588795213414 -0.005587376919945331 0.8197747183979975
74 1 1 1.0 0.42868829077749043 -0.38508894864420296 0.8172715894868585
75 1 1 1.0 -0.05632083201029205 0.5770444692852889 0.8147684605757196
76 1 1 1.0 -0.3503620334043153 -0.46633837127628913 0.8122653316645807
77 1 1 1.0 0.5767640693872034 0.10783498159598837 0.8097622027534418
78 1 1 1.0 -0.5010489484885359 0.3119018097379364 0.8072590738423029
79 1 1 1.0 0.15968820975373546 -0.5717233113697539 0.804755944931164
80 1 1 1.0 0.26997233336682197 0.532452212319954 0.8022528160200251
81 1 1 1.0 -0.5618700837415707 -0.21142953191425087 0.799749687108886
82 1 1 1.0 0.5602053424399538 -0.22487307474124213 0.7972465581977471
83 1 1 1.0 -0.26260261017427144 0.5471953497019337 0.7947434292866082
84 1 1 1.0 -0.17693649867388284 -0.583993820085464 0.7922403003754693
85 1 1 1.0 0.5277335883215714 0.31274983575496396 0.7897371714643304
86 1 1 1.0 -0.6035345064480012 0.12652534043395242 0.7872340425531915
87 1 1 1.0 0.36141644334650813 -0.5035628537265925 0.7847309136420526
88 1 1 1.0 0.0740296007216691 0.6185784598674268 0.7822277847309136
89 1 1 1.0 -0.4748044501707306 -0.408154621687424 0.7797246558197747
90 1 1 1.0 0.6289134662571214 -0.019863284478183463 0.7772215269086358
91 1 1 1.0 -0.45252758464773957 0.44162222423364855 0.7747183979974969
92 1 1 1.0 0.03553908919906888 -0.6343662596077951 0.772215269086358
93 1 1 1.0 0.40422147872403735 0.49411356731528483 0.769712140175219
94 1 1 1.0 -0.6348044120401373 -0.09172617668674646 0.7672090112640801
95 1 1 1.0 0.5325097121236391 -0.3628475161673412 0.7647058823529411
96 1 1 1.0 -0.14823366783883948 0.6301378756786327 0.7622027534418022
97 1 1 1.0 -0.3177838229927114 -0.5673358109022436 0.7596996245306633
98 1 1 1.0 0.6203201615762145 0.20458827963392892 0.7571964956195244
99 1 1 1.0 -0.5982378698671063 0.26934990867499786 0.7546933667083855
100 1 1 1.0 0.2603118514631121 -0.6053491440072979 0.7521902377972466
101 1 1 1.0 0.21789881710973177 0.6248914659940308 0.7496871088861077
102 1 1 1.0 -0.5852674816392495 -0.3149255070717779 0.7471839799749687
103 1 1 1.0 0.6470048649140575 -0.1638143303755576 0.7446808510638299
104 1 1 1.0 -0.36795384748557886 0.5601626503621984 0.7421777221526908
105 1 1 1.0 -0.10750788774725485 -0.6643218724271152 0.7396745932415519
106 1 1 1.0 0.5301665858773166 0.41892913887213007 0.737171464330413
107 1 1 1.0 -0.6766243939294513 0.04941524533861906 0.734668335419274
108 1 1 1.0 0.4673954592205605 -0.49545493748564157 0.7321652065081352
109 1 1 1.0 -0.010007095941917071 0.6837346784737808 0.7296620775969962
110 1 1 1.0 -0.45624593785537143 -0.5129127679601583 0.7271589486858574
111 1 1 1.0 0.6855172268082257 0.07028566436899171 0.7246558197747184
112 1 1 1.0 -0.5550608631856966 0.41279889684692816 0.7221526908635795
113 1 1 1.0 0.13093396173640492 -0.6818803455487408 0.7196495619524406
114 1 1 1.0 0.3654123307140945 0.5934431920059671 0.7171464330413015
115 1 1 1.0 -0.672777332606233 -0.1914565449212063 0.7146433041301627
116 1 1 1.0 0.6276904806765935 -0.3144217411487401 0.7121401752190237
117 1 1 1.0 -0.25135321026883173 0.6582072820889885 0.7096370463078849
118 1 1 1.0 -0.26019706166940093 -0.6574641526089023 0.7071339173967459
119 1 1 1.0 0.6382155001071286 0.31012324540601527 0.704630788485607
120 1 1 1.0 -0.6824595040517769 0.20313979174421412 0.7021276595744681
121 1 1 1.0 0.36726971239936557 -0.6128935261921141 0.6996245306633291
122 1 1 1.0 0.14367984176318396 0.7024086092083209 0.6971214017521903
123 1 1 1.0 -0.5823787583820365 -0.4223037257954426 0.6946182728410513
124 1 1 1.0 0.7170829287588617 -0.08227211450722431 0.6921151439299125
125 1 1 1.0 -0.47474868900171346 0.5468536833860602 0.6896120150187734
126 1 1 1.0 -0.01939285108487097 -0.7262955981958901 0.6871088861076345
127 1 1 1.0 0.5065447165990402 0.524144452702698 0.6846057571964956
128 1 1 1.0 -0.7299033750168578 -0.04446422860242755 0.6821026282853566
129 1 1 1.0 0.5700513595471642 -0.4617206600627074 0.6795994993742178
130 1 1 1.0 -0.10879195896384884 0.7278082266438964 0.6770963704630788
131 1 1 1.0 -0.41269078973443984 -0.6120541401876228 0.67459324155194
132 1 1 1.0 0.7199585439226123 0.1730739019127595 0.672090112640801
133 1 1 1.0 -0.6497656268955843 0.35980258660104386 0.6695869837296621
134 1 1 1.0 0.2367886253740782 -0.706349968170109 0.6670838548185232
135 1 1 1.0 0.3034391292362989 0.682830252405919 0.6645807259073842
136 1 1 1.0 -0.687025822969306 -0.299414051321953 0.6620775969962454
137 1 1 1.0 0.7109273033496489 -0.2440161683213744 0.6595744680851063
138 1 1 1.0 -0.36043183685606783 0.6620771452154876 0.6570713391739675
139 1 1 1.0 -0.18197890640184725 -0.7337738996026674 0.6545682102628285
140 1 1 1.0 0.6316423132842075 0.4193317514221757 0.6520650813516896
141 1 1 1.0 -0.7511276730921531 0.11779850872055678 0.6495619524405507
142 1 1 1.0 0.4756160131890519 -0.5959062735790633 0.6470588235294117
143 1 1 1.0 0.05196837332014789 0.7627891220446275 0.6445556946182729
144 1 1 1.0 -0.5550993701048272 -0.5288035478115768 0.6420525657071339
145 1 1 1.0 0.768603619309629 0.014999809267610402 0.6395494367959951
146 1 1 1.0 -0.5784341333355482 0.5094957850685581 0.6370463078848561
147 1 1 1.0 0.08258017455339352 -0.7684630562288992 0.6345431789737171
148 1 1 1.0 0.45941160180824714 0.624072395833107 0.6320400500625782
149 1 1 1.0 -0.7623071065196665 -0.15023694704293114 0.6295369211514392
150 1 1 1.0 0.6653116214875319 -0.4052025045608415 0.6270337922403004
151 1 1 1.0 -0.21742881247952225 0.7501240977767494 0.6245306633291614
152 1 1 1.0 -0.3472611326789228 -0.7017773522680731 0.6220275344180226
153 1 1 1.0 0.7319514814464095 0.2836133632072876 0.6195244055068836
154 1 1 1.0 -0.7331307340351493 0.2860141098639029 0.6170212765957447
155 1 1 1.0 0.34825157974679993 -0.7078758954577699 0.6145181476846058
156 1 1 1.0 0.22191877177751426 0.759071587881191 0.6120150187734668
157 1 1 1.0 -0.6780328170877373 -0.4108123112426408 0.609511889862328
158 1 1 1.0 0.7793411777264494 -0.15545961799918703 0.6070087609511889
159 1 1 1.0 -0.47077671732120824 0.64260580705447 0.6045056320400501
160 1 1 1.0 -0.0871445166925501 -0.7937246496342085 0.6020025031289111
161 1 1 1.0 0.6018253492540653 0.527642634088378 0.5994993742177722
162 1 1 1.0 -0.8020531209661079 0.01750069250938562 0.5969962453066333
163 1 1 1.0 0.5809288274993814 -0.5559672939468359 0.5944931163954943
164 1 1 1.0 -0.05292946982453756 0.8042054003439458 0.5919899874843555
165 1 1 1.0 -0.5053509155349666 -0.6301790981438941 0.5894868585732165
166 1 1 1.0 0.8001093223960718 0.12359277214665829 0.5869837296620777
167 1 1 1.0 -0.6749662026016755 0.4503365993246561 0.5844806007509387
168 1 1 1.0 0.1939296642516948 -0.7897426844195393 0.5819774718397998
169 1 1 1.0 0.39132317480587403 0.7148955579294419 0.5794743429286608
170 1 1 1.0 -0.7731337753575458 -0.263378783497333 0.5769712140175218
171 1 1 1.0 0.7496086975270888 -0.3287449159849425 0.574468085106383
172 1 1 1.0 -0.33138153529701075 0.7503614908487567 0.571964956195244
173 1 1 1.0 -0.2630682321454974 -0.7787864485865755 0.5694618272841051
174 1 1 1.0 0.7215550315223589 0.39738667670670547 0.5669586983729662
175 1 1 1.0 -0.8021518035360141 0.19478807506478427 0.5644555694618273
176 1 1 1.0 0.4608548651535388 -0.6868931851630489 0.5619524405506884
177 1 1 1.0 0.12442409115730305 0.8194724603339111 0.5594493116395494
178 1 1 1.0 -0.6466031968239523 -0.5212631345120207 0.5569461827284106
179 1 1 1.0 0.8305630091273365 -0.05251654923090421 0.5544430538172715
180 1 1 1.0 -0.5781092612043658 0.6009592343947757 0.5519399249061326
181 1 1 1.0 0.020377923493947445 -0.8352867456393824 0.5494367959949937
182 1 1 1.0 0.550280460508558 0.6309159837828618 0.5469336670838548
183 1 1 1.0 -0.8335570946732392 -0.09369076275105952 0.5444305381727159
184 1 1 1.0 0.6792350405384976 -0.49492872496522256 0.5419274092615769
185 1 1 1.0 -0.16684601021078663 0.8253386302876863 0.5394242803504381
186 1 1 1.0 -0.4353058950363005 -0.7226509910625893 0.5369211514392991
187 1 1 1.0 0.8106476824858403 0.23926494117907746 0.5344180225281602
188 1 1 1.0 -0.7607847893561644 0.37185084406612473 0.5319148936170213
189 1 1 1.0 0.31037073928895154 -0.7895525236386958 0.5294117647058824
190 1 1 1.0 0.30503612167500166 0.7932970780220964 0.5269086357947435
191 1 1 1.0 -0.7621731313095741 -0.37959317994388253 0.5244055068836044
192 1 1 1.0 0.8198911752719789 -0.23536433157515368 0.5219023779724656
193 1 1 1.0 -0.4463732840707597 0.7286805276267609 0.5193992490613266
194 1 1 1.0 -0.1633642455079269 -0.8403157289158097 0.5168961201501877
195 1 1 1.0 0.6892956988404888 0.5101679038553347 0.5143929912390488
196 1 1 1.0 -0.8543670141581807 0.08958668407943428 0.5118898623279099
197 1 1 1.0 0.570454202563498 -0.6442881021690803 0.509386733416771
198 1 1 1.0 0.014600197293987848 0.8618908548780145 0.506883604505632
199 1 1 1.0 -0.5939737704568895 -0.6267339912979822 0.5043804755944932
200 1 1 1.0 0.8627841510976823 0.061013420660770486 0.5018773466833542
201 1 1 1.0 -0.6785378865912917 0.5387130285083253 0.49937421777221525
202 1 1 1.0 0.1366637463452287 -0.856995998525603 0.49687108886107634
203 1 1 1.0 0.4789078381971375 0.7254292540891093 0.49436795994993743
204 1 1 1.0 -0.8445283893596991 -0.21175643450126072 0.4918648310387985
205 1 1 1.0 0.7670079052200045 -0.4149987925533524 0.4893617021276596
206 1 1 1.0 -0.2856979798924779 0.8254364869394442 0.4868585732165206
207 1 1 1.0 -0.34746178197514915 -0.8029135156655356 0.4843554443053817
208 1 1 1.0 0.7998284703043292 0.3579004948862798 0.4818523153942428
209 1 1 1.0 -0.8328287366242179 0.2768043584752516 0.4793491864831039
210 1 1 1.0 0.4277864638590911 -0.7678649482278826 0.47684605757196497
211 1 1 1.0 0.20356182642797013 0.85648197228592 0.47434292866082606
212 1 1 1.0 -0.729757945820144 -0.49479343557138966 0.47183979974968715
213 1 1 1.0 0.8736497995806396 -0.12829309061245955 0.46933667083854813
214 1 1 1.0 -0.5583786150432632 0.6857694702987858 0.4668335419274092
215 1 1 1.0 -0.05157629443049415 -0.8841590091159841 0.4643304130162703
216 1 1 1.0 0.6362096659910698 0.6180233171617474 0.4618272841051314
217 1 1 1.0 -0.8878882492480389 -0.0259957170044885 0.4593241551939925
218 1 1 1.0 0.6732372452629652 -0.5814345720170191 0.4568210262828536
219 1 1 1.0 -0.10382007267157692 0.884769258416121 0.4543178973717147
220 1 1 1.0 -0.5218434993906415 -0.7235625592473992 0.45181476846057567
221 1 1 1.0 0.8747876741873829 0.18128865285843482 0.44931163954943676
222 1 1 1.0 -0.7685776993952883 0.4578760474336172 0.44680851063829785
223 1 1 1.0 0.25779292936560344 -0.8579834108753995 0.44430538172715894
224 1 1 1.0 0.3900087823984495 0.8079009339385419 0.44180225281602004
225 1 1 1.0 -0.8344506010899424 -0.33272882964516004 0.43929912390488113
226 1 1 1.0 0.8411936006007324 -0.3187516040207517 0.4367959949937422
227 1 1 1.0 -0.40550158550724724 0.8043371001146639 0.4342928660826032
228 1 1 1.0 -0.24464382833969392 -0.8681630147205628 0.4317897371714643
229 1 1 1.0 0.7678435555664758 0.4755305270362546 0.4292866082603254
230 1 1 1.0 -0.8885650192074778 0.16825001751981203 0.4267834793491865
231 1 1 1.0 0.5422537826881042 -0.725222048335963 0.42428035043804757
232 1 1 1.0 0.09015558955648673 0.9022061544196888 0.42177722152690866
233 1 1 1.0 -0.6767743143132579 -0.6051328471889809 0.41927409261576976
234 1 1 1.0 0.9089454290820652 -0.01096224263249719 0.41677096370463074
235 1 1 1.0 -0.6636569798199651 0.6228495598390952 0.41426783479349183
236 1 1 1.0 0.06871676949809323 -0.9086956765492864 0.4117647058823529
237 1 1 1.0 0.563841887160464 0.7173473969412322 0.409261576971214
238 1 1 1.0 -0.9014244840436949 -0.14826147341206922 0.4067584480600751
239 1 1 1.0 0.7657612241806355 -0.5001873493813755 0.4042553191489362
240 1 1 1.0 -0.22705008450503825 0.8871546859287776 0.4017521902377973
241 1 1 1.0 -0.4323606574635631 -0.808495175562265 0.39924906132665827
242 1 1 1.0 0.8659644155922224 0.3044639486700538 0.39674593241551936
243 1 1 1.0 -0.8451889289764917 0.36087156471600423 0.39424280350438046
244 1 1 1.0 0.3798924773928887 -0.8379867140771832 0.39173967459324155
245 1 1 1.0 0.2862609568975201 0.8755281697704422 0.38923654568210264
246 1 1 1.0 -0.803408697188376 -0.4527380364346829 0.38673341677096373
247 1 1 1.0 0.8992472768507793 -0.20909667851884686 0.3842302878598248
248 1 1 1.0 -0.5224207485410514 0.7624702863815562 0.3817271589486858
249 1 1 1.0 -0.12996912814958034 -0.9161316285174962 0.3792240300375469
250 1 1 1.0 0.7154625122916122 0.5883831712072345 0.376720901126408
251 1 1 1.0 -0.9260195082655874 0.049486657492707344 0.3742177722152691
252 1 1 1.0 0.6500948114372469 -0.6627254032370072 0.3717146433041302
253 1 1 1.0 -0.0317291893313483 0.9288035939766864 0.36921151439299127
254 1 1 1.0 -0.604645474428134 -0.7070564406544005 0.36670838548185236
255 1 1 1.0 0.9244320172494379 0.11304855846226411 0.36420525657071334
256 1 1 1.0 -0.7588041744416554 0.5416528368765872 0.36170212765957444
257 1 1 1.0 0.19383825202710225 -0.9129089830586612 0.3591989987484355
258 1 1 1.0 0.4742179481245772 0.8049132836011157 0.3566958698372966
259 1 1 1.0 -0.8942949434614721 -0.27346673723591713 0.3541927409261577
260 1 1 1.0 0.8450017051084256 -0.402848029863097 0.3516896120150188
261 1 1 1.0 -0.3513091587148288 0.8687063226549137 0.3491864831038799
262 1 1 1.0 -0.32808318025970556 -0.8787332238833059 0.3466833541927409
263 1 1 1.0 0.8363147943052732 0.42675231382059814 0.34418022528160197
264 1 1 1.0 -0.9058202988833977 0.25049221134925803 0.34167709637046306
265 1 1 1.0 0.4991995508815155 -0.7973461156847725 0.33917396745932415
266 1 1 1.0 0.17066824413262646 0.9260265098343287 0.33667083854818525
267 1 1 1.0 -0.7520785267373793 -0.5680755508349781 0.33416770963704634
268 1 1 1.0 0.9391686039120491 -0.089224096060429 0.33166458072590743
269 1 1 1.0 -0.6328309535787388 0.700840725722912 0.3291614518147684
270 1 1 1.0 -0.006787497334111909 -0.9451181248699696 0.3266583229036295
271 1 1 1.0 0.6440094365286929 0.6929467915141005 0.3241551939924906
272 1 1 1.0 -0.943802610427737 -0.07600382607928945 0.3216520650813517
273 1 1 1.0 0.7479386942263908 -0.5820065860626861 0.3191489361702128
274 1 1 1.0 -0.15850716366206974 0.9352063471839009 0.3166458072590739
275 1 1 1.0 -0.5152961133241983 -0.7973608300094511 0.31414267834793497
276 1 1 1.0 0.9193706758534834 0.24007988588705198 0.31163954943679595
277 1 1 1.0 -0.8408095519827891 0.4443804347617991 0.30913642052565704
278 1 1 1.0 0.320084523655803 -0.896393843235039 0.30663329161451813
279 1 1 1.0 0.3697965933484486 0.8779267188563623 0.3041301627033792
280 1 1 1.0 -0.8664304009510637 -0.3978938210043902 0.3016270337922403
281 1 1 1.0 0.9084026629503764 -0.2921121214077682 0.2991239048811014
282 1 1 1.0 -0.4728957205747477 0.829690154651161 0.2966207759699625
283 1 1 1.0 -0.2119206495916361 -0.9319787808556804 0.2941176470588235
284 1 1 1.0 0.786436670989744 0.5444982418043817 0.2916145181476846
285 1 1 1.0 -0.9484497251023756 0.1298372965173824 0.28911138923654567
286 1 1 1.0 0.6121342125665382 -0.7369853532593359 0.28660826032540676
287 1 1 1.0 0.046493875409148754 0.9576651783653408 0.28410513141426785
288 1 1 1.0 -0.6817011000499249 -0.6752658160879683 0.28160200250312895
289 1 1 1.0 0.9595311950524728 0.03746604437161309 0.27909887359199004
290 1 1 1.0 -0.7333889163813126 0.6209955646810125 0.276595744680851
291 1 1 1.0 0.12139218177666782 -0.9540110985643812 0.2740926157697121
292 1 1 1.0 0.555324036395849 0.7860371271313581 0.2715894868585732
293 1 1 1.0 -0.9411259260590676 -0.2046326544470543 0.2690863579474343
294 1 1 1.0 0.8327855909672754 -0.4851819673832363 0.2665832290362954
295 1 1 1.0 -0.28653911435188717 0.9209544161707046 0.2640801001251565
296 1 1 1.0 -0.41110117258083645 -0.8732544383128907 0.2615769712140176
297 1 1 1.0 0.8936325387899962 0.36647186774726553 0.25907384230287855
298 1 1 1.0 -0.9071118975195493 0.3336457318895842 0.25657071339173965
299 1 1 1.0 0.4438049385620136 -0.8593525696849693 0.25406758448060074
300 1 1 1.0 0.2534076268701262 0.9340770307303842 0.25156445556946183
301 1 1 1.0 -0.8183617163957856 -0.5179310346956822 0.24906132665832292
302 1 1 1.0 0.9539220728790103 -0.17100214617914156 0.24655819774718402
303 1 1 1.0 -0.5882663774196487 0.7709603054457452 0.2440550688360451
304 1 1 1.0 -0.08706309591794888 -0.9664743543662689 0.2415519399249061
305 1 1 1.0 0.7174995444438941 0.6542553550989926 0.23904881101376718
306 1 1 1.0 -0.9716177912604989 0.0022378526921676494 0.23654568210262827
307 1 1 1.0 0.7153749637931882 -0.6583788760839031 0.23404255319148937
308 1 1 1.0 -0.08281770149409004 0.9692939303034759 0.23153942428035046
309 1 1 1.0 -0.5940429443413856 -0.7711389989371337 0.22903629536921155
310 1 1 1.0 0.9595025395480611 0.1674443223740378 0.22653316645807264
311 1 1 1.0 -0.821101964237696 0.5249781963107771 0.22403003754693362
312 1 1 1.0 0.2509845837578466 -0.9423017390762731 0.22152690863579472
313 1 1 1.0 0.4517091460778227 0.8648626661295825 0.2190237797246558
314 1 1 1.0 -0.9178076699188247 -0.33278805388635685 0.2165206508135169
315 1 1 1.0 0.9020674646004067 -0.3747943297705545 0.214017521902378
316 1 1 1.0 -0.4122164265761021 0.8861937029895759 0.2115143929912391
317 1 1 1.0 -0.2948219834480121 -0.9324131538987523 0.20901126408010018
318 1 1 1.0 0.8476891935311229 0.48864856623098 0.20650813516896116
319 1 1 1.0 -0.9556494495592911 0.21240547775132793 0.20400500625782225
320 1 1 1.0 0.5614854264231086 -0.8025777902111558 0.20150187734668334
321 1 1 1.0 0.128178545237633 0.9715810612922892 0.19899874843554444
322 1 1 1.0 -0.7511953115838872 -0.6301548026970093 0.19649561952440553
323 1 1 1.0 0.9800693345662758 -0.04279033802716893 0.19399249061326662
324 1 1 1.0 -0.6941158815199319 0.6939272061079026 0.19148936170212771
325 1 1 1.0 0.04309964519604939 -0.9810334471359501 0.1889862327909887
326 1 1 1.0 0.6312056152631037 0.7528635488769952 0.1864831038798498
327 1 1 1.0 -0.9744511503051949 -0.12882672269135387 0.18397997496871088
328 1 1 1.0 0.805932423880469 -0.563506062507892 0.18147684605757197
329 1 1 1.0 -0.21372624276012592 0.9603590483389158 0.17897371714643306
330 1 1 1.0 -0.49134379383747356 -0.8529005849132052 0.17647058823529416
331 1 1 1.0 0.9388524131182941 0.2971388050697085 0.17396745932415525
332 1 1 1.0 -0.8933929582398901 0.41526979852066553 0.17146433041301623
333 1 1 1.0 0.37841544871727517 -0.9100845348423109 0.16896120150187732
334 1 1 1.0 0.33586654118311093 0.9270843416772123 0.16645807259073842
335 1 1 1.0 -0.8742656132843384 -0.456922765761982 0.1639549436795995
336 1 1 1.0 0.9537020387944238 -0.2537434387473497 0.1614518147684606
337 1 1 1.0 -0.5320478994992458 0.8316611977858959 0.1589486858573217
338 1 1 1.0 -0.16953211781945715 -0.9730280821946756 0.15644555694618267
339 1 1 1.0 0.7825901877825627 0.6032033876207332 0.15394242803504377
340 1 1 1.0 -0.9849010276838182 0.08388148990223783 0.15143929912390486
341 1 1 1.0 0.6698318115993677 -0.7274224091763073 0.14893617021276595
342 1 1 1.0 -0.002547316685315529 0.9892173045356923 0.14643304130162704
343 1 1 1.0 -0.6665757852717774 -0.731410215138249 0.14392991239048814
344 1 1 1.0 0.9859321105895154 0.0890861281187417 0.14142678347934923
345 1 1 1.0 -0.7874542563268466 0.600513124248043 0.1389236545682102
346 1 1 1.0 0.17506495867860158 -0.9750598445338152 0.1364205256570713
347 1 1 1.0 0.5297385482194584 0.8375220602343159 0.1339173967459324
348 1 1 1.0 -0.9566740714150853 -0.25981726519138304 0.13141426783479349
349 1 1 1.0 0.8812177410254285 -0.4547935918231996 0.12891113892365458
350 1 1 1.0 -0.34268518062407166 0.9309070211279551 0.12640801001251567
351 1 1 1.0 -0.37625300093370107 -0.9181945652897529 0.12390488110137676
352 1 1 1.0 0.8979486233673731 0.42302468528181625 0.12140175219023774
353 1 1 1.0 -0.9481577311087007 0.2947202645240664 0.11889862327909884
354 1 1 1.0 0.5002106745170738 -0.8580450862221706 0.11639549436795993
355 1 1 1.0 0.21082291485195773 0.9708667404252624 0.11389236545682102
356 1 1 1.0 -0.8114970292336755 -0.5736418826469081 0.11138923654568211
357 1 1 1.0 0.9861373455033975 -0.125207633024954 0.1088861076345432
358 1 1 1.0 -0.642745623886593 0.758657185303461 0.1063829787234043
359 1 1 1.0 -0.03853519858267219 -0.9938430536423621 0.10387984981226528
360 1 1 1.0 0.699927689282201 0.7069823125336404 0.10137672090112637
361 1 1 1.0 -0.9939161778187021 -0.048524676992843546 0.09887359198998746
362 1 1 1.0 0.7658497263655439 -0.6357569743791961 0.09637046307884856
363 1 1 1.0 -0.13529859197124072 0.9863484245371141 0.09386733416770965
364 1 1 1.0 -0.5666363006727893 -0.81888697923321 0.09136420525657074
365 1 1 1.0 0.9711910138519931 0.22111472977589933 0.08886107634543183
366 1 1 1.0 -0.8656781711241709 0.49309594295030107 0.08635794743429281
367 1 1 1.0 0.3053081262995245 -0.9485543302446743 0.0838548185231539
368 1 1 1.0 0.4157010678385057 0.9058556865170061 0.081351689612015
369 1 1 1.0 -0.9186071067773343 -0.387225887375283 0.07884856070087609
370 1 1 1.0 0.939103114630582 -0.3350473326799939 0.07634543178973718
371 1 1 1.0 -0.4662323150158513 0.8815751486632012 0.07384230287859828
372 1 1 1.0 -0.25175624084689796 -0.9651577681665725 0.07133917396745937
373 1 1 1.0 0.8377396060643115 0.5417139017343163 0.06883604505632035
374 1 1 1.0 -0.9838127803272723 0.1664702901433122 0.06633291614518144
375 1 1 1.0 0.6130841532881595 -0.787434809523047 0.06382978723404253
376 1 1 1.0 0.07984795261549245 0.9949187632375117 0.06132665832290363
377 1 1 1.0 -0.7310456849231983 -0.6797882015324441 0.05882352941176472
378 1 1 1.0 0.9983850143827211 0.007441474548950666 0.05632040050062581
379 1 1 1.0 -0.7413071707201556 0.669004768232291 0.053817271589486904
380 1 1 1.0 0.0947231063061762 -0.9941802612669872 0.051314142678347885
381 1 1 1.0 0.6017888434724085 0.7971622625332676 0.04881101376720898
382 1 1 1.0 -0.9823329381664979 -0.18132175377855822 0.04630788485607007
383 1 1 1.0 0.8469185273520174 -0.5299152303760435 0.04380475594493116
384 1 1 1.0 -0.266567213178193 0.9629309925756743 0.041301627033792254
385 1 1 1.0 -0.45393775098251565 -0.890188291754257 0.038798498122653347
386 1 1 1.0 0.9361212226857075 0.34979951774011336 0.03629536921151444
387 1 1 1.0 -0.9266342149622385 0.37444240699578574 0.03379224030037542
388 1 1 1.0 0.4303741110544231 -0.9021081509678244 0.03128911138923651
389 1 1 1.0 0.2920428020390289 0.9559719498970476 0.028785982478097605
390 1 1 1.0 -0.8611524426277718 -0.5076669007967726 0.026282853566958697
391 1 1 1.0 0.9779723876421544 -0.20737534497812662 0.02377972465581979
392 1 1 1.0 -0.5810791528006544 0.813568881321054 0.021276595744680882
393 1 1 1.0 -0.12109427224136413 -0.9924634674250655 0.018773466833541974
394 1 1 1.0 0.7597239180457662 0.6500421866718195 0.016270337922402955
395 1 1 1.0 -0.99933153768044 0.03386652850954248 0.013767209011264048
396 1 1 1.0 0.7140218357183008 -0.7000328125287882 0.01126408010012514
397 1 1 1.0 -0.0536334537139922 0.9985222573267826 0.008760951188986232
398 1 1 1.0 -0.6349563896671735 -0.772522635837402 0.006257822277847325
399 1 1 1.0 0.9900410300454475 0.14072903433290293 0.003754693366708417
400 1 1 1.0 -0.825091710152543 0.5649974366525617 0.0012515644555695093
401 1 1 1.0 0.2267466638854593 -0.9739529680653106 -0.0012515644555695093
402 1 1 1.0 0.4906967692680392 0.8713223186098419 -0.003754693366708306
403 1 1 1.0 -0.9503823856994007 -0.3110211578215449 -0.006257822277847325
404 1 1 1.0 0.9108570444075034 -0.4126289984810712 -0.008760951188986343
405 1 1 1.0 -0.39290090506849584 0.9195118266209819 -0.01126408010012514
406 1 1 1.0 -0.33139803084180564 -0.943390592019135 -0.013767209011264159
407 1 1 1.0 0.8815806325760682 0.47175296964690133 -0.016270337922402955
408 1 1 1.0 -0.9686721746618762 0.2476323383140449 -0.018773466833541974
409 1 1 1.0 0.5469680449486819 -0.8368830648773664 -0.02127659574468077
410 1 1 1.0 0.1619800349995362 0.9865074723269167 -0.02377972465581979
411 1 1 1.0 -0.7857659935819452 -0.6179652214636 -0.026282853566958808
412 1 1 1.0 0.9967601449074137 -0.07510379975022782 -0.028785982478097605
413 1 1 1.0 -0.6841965302274194 0.7286261726929879 -0.031289111389236623
414 1 1 1.0 0.012324315114499919 -0.999352888499573 -0.03379224030037542
415 1 1 1.0 0.665907123017238 0.7451512260532791 -0.03629536921151444
416 1 1 1.0 -0.9942680265883457 -0.09962814786767489 -0.038798498122653235
417 1 1 1.0 0.8003597766831189 -0.5980956474278254 -0.041301627033792254
418 1 1 1.0 -0.18613272252135885 0.9815476315306312 -0.04380475594493127
419 1 1 1.0 -0.5257180062020661 -0.849397526341513 -0.04630788485607007
420 1 1 1.0 0.9612931754864115 0.2711695331306021 -0.04881101376720909
421 1 1 1.0 -0.8918880047711926 0.44933578280217923 -0.051314142678347885
422 1 1 1.0 0.3540817754211332 -0.9336647136918486 -0.053817271589486904
423 1 1 1.0 0.3695414729220635 0.9275058556570093 -0.0563204005006257