# Generated using make_nodes_sphere.py (uniform sphere sampling)

400 atoms
 1 atom types

-1.0 1.0 xlo xhi
-1.0 1.0 ylo yhi
-1.0 1.0 zlo zhi

Atoms

1 1 1 1.0 0.0 0.0 1.0
2 1 1 1.0 -0.07373665622322007 0.0675488172756775 0.9949874686716792
3 1 1 1.0 0.012348283515232872 -0.14070232168035127 0.9899749373433584
4 1 1 1.0 0.10511925273628026 0.13710945059052007 0.9849624060150376
5 1 1 1.0 -0.19619843051534305 -0.034704739803147346 0.9799498746867168
6 1 1 1.0 0.18771834827966277 -0.11941104741366401 0.974937343358396
7 1 1 1.0 -0.06318891383334613 0.23505960983755858 0.9699248120300752
8 1 1 1.0 -0.1210214858691072 -0.2330195067134343 0.9649122807017544
9 1 1 1.0 0.26333260837791317 0.09616864622996414 0.9598997493734336
10 1 1 1.0 -0.27450168576010836 0.11331030548420552 0.9548872180451128
11 1 1 1.0 0.13250735482534626 -0.28316052064485625 0.949874686716792
12 1 1 1.0 0.09800598735958371 0.3124585312586706 0.9448621553884712
13 1 1 1.0 -0.2955461750344402 -0.17127504948621686 0.9398496240601504
14 1 1 1.0 0.34679501307279487 -0.07624191078757589 0.9348370927318296
15 1 1 1.0 -0.21164941548238833 0.3010495140948344 0.9298245614035088
16 1 1 1.0 -0.048888599512082374 -0.377269948267758 0.924812030075188
17 1 1 1.0 0.300039615751536 0.252873705799323 0.9197994987468672
18 1 1 1.0 -0.4035916938731056 0.016689783636008582 0.9147869674185464
19 1 1 1.0 0.2942371948735045 -0.29280530833590324 0.9097744360902256
20 1 1 1.0 -0.019673754876506484 0.4254630877769176 0.9047619047619048
21 1 1 1.0 -0.2796099524177765 -0.3350661718449087 0.899749373433584
22 1 1 1.0 0.4426054120232765 0.0595519321870161 0.8947368421052632
23 1 1 1.0 -0.3747203930276494 0.26072068936257986 0.8897243107769424
24 1 1 1.0 0.10230870826286619 -0.4547724656555598 0.8847117794486216
25 1 1 1.0 0.2364246577392062 0.41259255212555246 0.8796992481203008
26 1 1 1.0 -0.46175943503986344 -0.14731385413236867 0.87468671679198
27 1 1 1.0 0.4481094746186161 -0.2070379431291492 0.8696741854636592
28 1 1 1.0 -0.19393959116152196 0.46340873842434427 0.8646616541353384
29 1 1 1.0 -0.17291016048098176 -0.4807342946572113 0.8596491228070176
30 1 1 1.0 0.4596139312260369 0.24156020104442508 0.8546365914786967
31 1 1 1.0 -0.5099691598978803 0.1344262339227006 0.849624060150376
32 1 1 1.0 0.2895535169205883 -0.4503222470851172 0.8446115288220551
33 1 1 1.0 0.0920062724233182 0.5353581691188456 0.8395989974937343
34 1 1 1.0 -0.4355360950179657 -0.337303632399695 0.8345864661654135
35 1 1 1.0 0.5564903411367573 -0.04610408724178752 0.8295739348370927
36 1 1 1.0 -0.38420440158936975 0.4153137002832901 0.8245614035087719
37 1 1 1.0 0.0027952981324928876 -0.573002471561948 0.8195488721804511
38 1 1 1.0 0.38976900519984314 0.429663440400445 0.8145363408521303
39 1 1 1.0 -0.5845817717203078 -0.05417890720940178 0.8095238095238095
40 1 1 1.0 0.473106422408973 -0.3590709071083919 0.8045112781954887
41 1 1 1.0 -0.10750966733169669 0.5909682099640015 0.7994987468671679
42 1 1 1.0 -0.3234418893413008 -0.5139815147824776 0.7944862155388471
43 1 1 1.0 0.5919564942668537 0.16223073332249544 0.7894736842105263
44 1 1 1.0 -0.5517638339504608 0.28315608975088163 0.7844611528822055
45 1 1 1.0 0.21777017267643797 -0.5873976491698136 0.7794486215538847
46 1 1 1.0 0.23853684583333987 0.5859598239948056 0.7744360902255639
47 1 1 1.0 -0.577200151430089 -0.27354592338944295 0.7694235588972431
48 1 1 1.0 0.6161114773409148 -0.18995375337123438 0.7644110275689223
49 1 1 1.0 -0.3289709463102085 0.5613305981249187 0.7593984962406015
50 1 1 1.0 -0.1378192753966062 -0.641800329754139 0.7543859649122807
51 1 1 1.0 0.5398138890826019 0.38345850126461256 0.7493734335839599
52 1 1 1.0 -0.6626511714275396 0.08258493929815769 0.7443609022556391
53 1 1 1.0 0.4364274814855475 -0.5127329127443475 0.7393483709273183
54 1 1 1.0 0.024737161527407462 0.6783354240491958 0.7343358395989975
55 1 1 1.0 -0.4802277311419452 -0.48730774491626433 0.7293233082706767
56 1 1 1.0 0.6885741407700186 0.03520725874008522 0.7243107769423559
57 1 1 1.0 -0.5355453842836142 0.44249426575842443 0.7192982456140351
58 1 1 1.0 0.09670593368494348 -0.6931405923457883 0.7142857142857143
59 1 1 1.0 0.3997824917115929 0.5806078808097235 0.7092731829573935
60 1 1 1.0 -0.6918624086487996 -0.15919592352091 0.7042606516290727
61 1 1 1.0 0.6219890892745568 -0.35239415301516097 0.6992481203007519
62 1 1 1.0 -0.22209896899228304 0.6846232503915323 0.6942355889724311
63 1 1 1.0 -0.30068001665508987 -0.6592140050059603 0.6892230576441103
64 1 1 1.0 0.6713639913731066 0.28482687156629277 0.6842105263157895
65 1 1 1.0 -0.6918432663538736 0.24503668787715344 0.6791979949874687
66 1 1 1.0 0.3467869721802845 -0.6520833969031342 0.6741854636591479
67 1 1 1.0 0.18590301341504423 0.7194773493578296 0.6691729323308271
68 1 1 1.0 -0.626838289303868 -0.4073876787567224 0.6641604010025063
69 1 1 1.0 0.7417604146750308 -0.1237561033852852 0.6591478696741855
70 1 1 1.0 -0.4660439924461232 0.5957431965469844 0.6541353383458647
71 1 1 1.0 -0.05910700622355696 -0.7583837704124164 0.6491228070175439
72 1 1 1.0 0.5589694851399063 0.5221829827119812 0.6441102756892231
73 1 1 1.0 -0.769088918300223 -0.007503925679259883 0.6390977443609023
74 1 1 1.0 0.575249161940524 -0.5167439833226416 0.6340852130325815
75 1 1 1.0 -0.07551193908011318 0.7736701546458744 0.6290726817042607
76 1 1 1.0 -0.46934710544853087 -0.6247097112418255 0.6240601503759399
77 1 1 1.0 0.7719767016972843 0.1443330086572578 0.6190476190476191
78 1 1 1.0 -0.6700595105040932 0.41711049307415976 0.6140350877192983
79 1 1 1.0 0.2133691462895797 -0.7639143493996265 0.6090225563909775
80 1 1 1.0 0.36041419274868963 0.7108259275583012 0.6040100250626567
81 1 1 1.0 -0.7494465920205698 -0.2820138440019175 0.5989974937343359
82 1 1 1.0 0.7465733234938636 -0.29968339473993505 0.5939849624060151
83 1 1 1.0 -0.34965760249432404 0.7285952487138191 0.5889724310776943
84 1 1 1.0 -0.23538476093538468 -0.7769072337184753 0.5839598997493735
85 1 1 1.0 0.7014405617548388 0.4156934963688921 0.5789473684210527
86 1 1 1.0 -0.8014781872555888 0.16802237388167865 0.5739348370927319
87 1 1 1.0 0.4795227268058803 -0.6681207708793068 0.568922305764411
88 1 1 1.0 0.09813334234810073 0.8199851299962873 0.5639097744360902
89 1 1 1.0 -0.6288311668469098 -0.5405601125207898 0.5588972431077694
90 1 1 1.0 0.83217842114048 -0.026283101893323065 0.5538847117794486
91 1 1 1.0 -0.5982394703543549 0.5838226320013346 0.5488721804511278
92 1 1 1.0 0.04693954834565077 -0.8378623758452957 0.543859649122807
93 1 1 1.0 0.5333996801647387 0.6520188377989776 0.5388471177944862
94 1 1 1.0 -0.8368973311126001 -0.12092762905599845 0.5338345864661654
95 1 1 1.0 0.701385491140465 -0.47791801265220696 0.5288220551378446
96 1 1 1.0 -0.19506133878276113 0.8292012161584889 0.5238095238095238
97 1 1 1.0 -0.4177816114823502 -0.7458607146777937 0.518796992481203
98 1 1 1.0 0.8147506128781685 0.26871353946627097 0.5137844611528822
99 1 1 1.0 -0.7850042786600476 0.3534393949576216 0.5087719298245614
100 1 1 1.0 0.34125532120853064 -0.793581296511938 0.5037593984962406
101 1 1 1.0 0.2853814646583715 0.8184185861279226 0.4987468671679198
102 1 1 1.0 -0.7657882511930646 -0.41206159727363323 0.493734335839599
103 1 1 1.0 0.8457524517451999 -0.2141349765036609 0.4887218045112782
104 1 1 1.0 -0.4805166800414042 0.7315251596758663 0.4837092731829574
105 1 1 1.0 -0.140259671851479 -0.866704478925701 0.4786967418546366
106 1 1 1.0 0.6910033711629338 0.546019788780152 0.4736842105263158
107 1 1 1.0 -0.8810260050763226 0.06434310761058556 0.468671679197995
108 1 1 1.0 0.6079904406844027 -0.6444903557332362 0.4636591478696742
109 1 1 1.0 -0.01300437300791773 0.8885235885545413 0.4586466165413534
110 1 1 1.0 -0.5923076583786229 -0.6658736776288485 0.4536340852130326
111 1 1 1.0 0.8890610149463867 0.09115488518213127 0.4486215538847118
112 1 1 1.0 -0.719145082511765 0.5348283700456717 0.443609022556391
113 1 1 1.0 0.16946841679372826 -0.8825608044729 0.4385964912280702
114 1 1 1.0 0.4724741373150492 0.7673155408865721 0.4335839598997494
115 1 1 1.0 -0.8690052066926891 -0.2472983650436079 0.4285714285714286
116 1 1 1.0 0.8099357057925456 -0.4057117363948613 0.4235588972431078
117 1 1 1.0 -0.3239971469603449 0.848436673147196 0.418546365914787
118 1 1 1.0 -0.3350492409230618 -0.846600126275146 0.4135338345864662
119 1 1 1.0 0.8209578031544492 0.39892183472967124 0.4085213032581454
120 1 1 1.0 -0.8769510030102788 0.261031816633434 0.4035087719298246
121 1 1 1.0 0.47143976653712977 -0.7867307625572328 0.3984962406015038
122 1 1 1.0 0.1842371792110653 0.9006815376885257 0.393483709273183
123 1 1 1.0 -0.7459761798313279 -0.5409340838127965 0.3884711779448622
124 1 1 1.0 0.9175388463481617 -0.10527075461444609 0.3834586466165414
125 1 1 1.0 -0.606809146388299 0.6989715285208395 0.3784461152882206
126 1 1 1.0 -0.02476058375295539 -0.9273264106360163 0.3734335839598998
127 1 1 1.0 0.6460490094490252 0.6684957781226242 0.368421052631579
128 1 1 1.0 -0.9299060449924587 -0.056647984347748766 0.3634085213032582
129 1 1 1.0 0.7254562970108566 -0.5875929505169206 0.3583959899749374
130 1 1 1.0 -0.13829776489930742 0.925199361964118 0.3533834586466166
131 1 1 1.0 -0.5240367461100962 -0.7771892856477971 0.3483709273182958
132 1 1 1.0 0.9131887222094919 0.21952532777013944 0.343358395989975
133 1 1 1.0 -0.8232340601595306 0.45585936214978845 0.33834586466165417
134 1 1 1.0 0.2996666574704529 -0.8939176602402343 0.33333333333333337
135 1 1 1.0 0.3835814366137293 0.8631747983207879 0.32832080200501257
136 1 1 1.0 -0.8674907814957268 -0.3780628335766163 0.32330827067669177
137 1 1 1.0 0.8966442905215548 -0.30776100888152097 0.31829573934837097
138 1 1 1.0 -0.45406568226956945 0.8340731309410082 0.31328320802005016
139 1 1 1.0 -0.22898891449894399 -0.9233272805070901 0.30827067669172936
140 1 1 1.0 0.7938890379684511 0.5270433498909486 0.30325814536340856
141 1 1 1.0 -0.9429633663628986 0.14788388487723514 0.29824561403508776
142 1 1 1.0 0.5963857500754646 -0.7472204469319692 0.29323308270676696
143 1 1 1.0 0.06508739402204343 0.9553494360193676 0.28822055137844615
144 1 1 1.0 -0.6944047471093928 -0.6615098370933179 0.28320802005012535
145 1 1 1.0 0.9603416155767157 0.018741703400171724 0.27819548872180455
146 1 1 1.0 -0.7218646595209798 0.6358321202364741 0.27318295739348375
147 1 1 1.0 0.10293269652013756 -0.957856712964482 0.26817042606516295
148 1 1 1.0 0.5719424279445036 0.7769361502431327 0.26315789473684215
149 1 1 1.0 -0.94787314381491 -0.18680865768245783 0.25814536340852134
150 1 1 1.0 0.8262516110509678 -0.5032216654305904 0.25313283208020054
151 1 1 1.0 -0.269692148235996 0.9304313309076874 0.24812030075187974
152 1 1 1.0 -0.43019801145681696 -0.8693838527281847 0.24310776942355894
153 1 1 1.0 0.9056335730966396 0.35091094151733926 0.23809523809523814
154 1 1 1.0 -0.9059549544793813 0.35343750828183107 0.23308270676691734
155 1 1 1.0 0.4298037136752681 -0.8736433842171278 0.22807017543859653
156 1 1 1.0 0.27353940834469603 0.9356396098319092 0.22305764411027573
157 1 1 1.0 -0.8346843070567217 -0.5057256532401188 0.21804511278195493
158 1 1 1.0 0.9581680297028776 -0.19113122741850952 0.21303258145363413
159 1 1 1.0 -0.5780539410224625 0.7890382120114726 0.20802005012531333
160 1 1 1.0 -0.10686354650550184 -0.9733283771370046 0.20300751879699253
161 1 1 1.0 0.7370430945066365 0.6461930530246837 0.19799498746867172
162 1 1 1.0 -0.9809687122554094 0.02140460693405287 0.19298245614035092
163 1 1 1.0 0.7095798405572022 -0.6790903895955053 0.18796992481203012
164 1 1 1.0 -0.06456525507746655 0.9809984301753132 0.18295739348370932
165 1 1 1.0 -0.6156218263256997 -0.7676883436550993 0.17794486215538852
166 1 1 1.0 0.973389179029463 0.1503592867203941 0.17293233082706772
167 1 1 1.0 -0.8200342961742413 0.5471258484428579 0.1679197994987469
168 1 1 1.0 0.23529006109636122 -0.9581752496941879 0.1629072681704261
169 1 1 1.0 0.47413363175283096 0.8661792835888152 0.1578947368421053
170 1 1 1.0 -0.9354534333875159 -0.3186752346837601 0.1528822055137845
171 1 1 1.0 0.9057345174918299 -0.3972147319525384 0.1478696741854637
172 1 1 1.0 -0.39984327038628553 0.9053823478848555 0.1428571428571429
173 1 1 1.0 -0.3169723999382181 -0.9383641940898397 0.1378446115288221
174 1 1 1.0 0.8681812376788312 0.47813907706028436 0.1328320802005013
175 1 1 1.0 -0.963788407556805 0.2340386044763348 0.1278195488721805
176 1 1 1.0 0.5529295171181049 -0.8241282579438236 0.1228070175438597
177 1 1 1.0 0.14906880465819713 0.9817855929351345 0.1177944862155389
178 1 1 1.0 -0.7735582566142167 -0.6236087349258275 0.1127819548872181
179 1 1 1.0 0.9921944773152109 -0.06273651672653158 0.10776942355889729
180 1 1 1.0 -0.689603260241305 0.7168600732107184 0.10275689223057649
181 1 1 1.0 0.02427227835375945 -0.9949155222506719 0.09774436090225569
182 1 1 1.0 0.6544733772138384 0.7503768428610944 0.09273182957393489
183 1 1 1.0 -0.9899118447400307 -0.11126483882469847 0.08771929824561409
184 1 1 1.0 0.8054349769454866 -0.5868850727518223 0.08270676691729328
185 1 1 1.0 -0.1975474288362076 0.9772096085878652 0.07769423558897248
186 1 1 1.0 -0.5146253001078785 -0.8543290761496082 0.07268170426065168
187 1 1 1.0 0.9568978825121369 0.28243109863901866 0.06766917293233088
188 1 1 1.0 -0.8966602636825031 0.43826306802619186 0.06265664160401008
189 1 1 1.0 0.36523742886241234 -0.9291279659489851 0.057644110275689275
190 1 1 1.0 0.3584015539780793 0.9320827447193757 0.052631578947368474
191 1 1 1.0 -0.894112188083021 -0.4453041897683508 0.04761904761904767
192 1 1 1.0 0.960306732176254 -0.2756731124112988 0.04260651629072687
193 1 1 1.0 -0.5219908670954087 0.8521221901603254 0.03759398496240607
194 1 1 1.0 -0.19073403352239351 -0.9811009006903259 0.03258145363408527
195 1 1 1.0 0.8034867055837308 0.59468400724511 0.027568922305764465
196 1 1 1.0 -0.9942943477001064 0.1042590972418849 0.022556390977443663
197 1 1 1.0 0.6628023361082213 -0.7485888566082829 0.01754385964912286
198 1 1 1.0 0.01693596888859429 0.9997780447520944 0.01253132832080206
199 1 1 1.0 -0.6878629906094754 -0.7258016077700398 0.007518796992481258
200 1 1 1.0 0.9975057665392052 0.0705405156874634 0.0025062656641604564
201 1 1 1.0 -0.7831791416487538 0.6217910828556019 -0.0025062656641603454
202 1 1 1.0 0.15747412669908817 -0.9874944896616615 -0.007518796992481258
203 1 1 1.0 0.5508987364408646 0.8344780092958561 -0.012531328320801949
204 1 1 1.0 -0.969824257656229 -0.2431730294464334 -0.01754385964912286
205 1 1 1.0 0.8792908350950881 -0.47575081349783893 -0.022556390977443552
206 1 1 1.0 -0.32695553635705005 0.9446375134242617 -0.027568922305764465
207 1 1 1.0 -0.39694673497577065 -0.917263178412371 -0.032581453634085156
208 1 1 1.0 0.9121379047639934 0.40815577294385863 -0.03759398496240607
209 1 1 1.0 -0.948096468344626 0.3151154891179033 -0.04260651629072676
210 1 1 1.0 0.4861292093237856 -0.8725885732383194 -0.04761904761904767
211 1 1 1.0 0.23091039127203158 0.9715504660593315 -0.05263157894736836
212 1 1 1.0 -0.8263099410469716 -0.5602580100966648 -0.057644110275689275
213 1 1 1.0 0.9874452337760384 -0.14500363980221756 -0.06265664160400997
214 1 1 1.0 -0.6299561569474526 0.7736770148832464 -0.06766917293233088
215 1 1 1.0 -0.05808071461767607 -0.9956625936808449 -0.07268170426065157
216 1 1 1.0 0.7151162299031704 0.6946743002913819 -0.07769423558897248
217 1 1 1.0 -0.9961470644485094 -0.02916533381783869 -0.08270676691729317
218 1 1 1.0 0.7539042986145319 -0.6511018608834009 -0.08771929824561409
219 1 1 1.0 -0.11603965619785454 0.9889062675366935 -0.09273182957393478
220 1 1 1.0 -0.5821520313592348 -0.807183406851334 -0.09774436090225569
221 1 1 1.0 0.9740107999740536 0.2018513874934172 -0.10275689223057638
222 1 1 1.0 -0.8540980781626246 0.508824354983814 -0.10776942355889729
223 1 1 1.0 0.2859193920793564 -0.9515935749492999 -0.11278195488721798
224 1 1 1.0 0.43171124650420173 0.8942873468069452 -0.1177944862155389
225 1 1 1.0 -0.9218486360823746 -0.367577921800328 -0.12280701754385959
226 1 1 1.0 0.9274457634052389 -0.3514349425822451 -0.1278195488721805
227 1 1 1.0 -0.44618213866936496 0.8850294557821446 -0.1328320802005012
228 1 1 1.0 -0.2686422751736093 -0.9533258577537981 -0.1378446115288221
229 1 1 1.0 0.8414467325284528 0.5211134550670173 -0.1428571428571428
230 1 1 1.0 -0.9717401084091034 0.1839992422955826 -0.1478696741854637
231 1 1 1.0 0.5917846458907767 -0.7914657062217977 -0.1528822055137844
232 1 1 1.0 0.09818542274502971 0.9825624025159634 -0.1578947368421053
233 1 1 1.0 -0.7355030148842582 -0.6576446890786966 -0.162907268170426
234 1 1 1.0 0.9857289737406454 -0.011888282656242713 -0.1679197994987469
235 1 1 1.0 -0.7181832932817235 0.6740231199341277 -0.1729323308270676
236 1 1 1.0 0.07420257729310673 -0.9812388106651511 -0.17794486215538852
237 1 1 1.0 0.6075343309627426 0.7729350741629597 -0.1829573934837092
238 1 1 1.0 -0.9691535325598883 -0.15940118472849893 -0.18796992481203012
239 1 1 1.0 0.8214833438428365 -0.5365844643770723 -0.1929824561403508
240 1 1 1.0 -0.24303091910450525 0.9495967340384549 -0.19799498746867172
241 1 1 1.0 -0.4617561734151287 -0.86346348134991 -0.20300751879699241
242 1 1 1.0 0.9227528046725916 0.3244301468956427 -0.20802005012531333
243 1 1 1.0 -0.8985658555599135 0.3836619898570634 -0.21303258145363402
244 1 1 1.0 0.4029577202161588 -0.8888652341666314 -0.21804511278195493
245 1 1 1.0 0.3029391202244615 0.9265382759722357 -0.22305764411027562
246 1 1 1.0 -0.8482344181206058 -0.47799829182854303 -0.22807017543859653
247 1 1 1.0 0.9471879507529931 -0.2202440413599261 -0.23308270676691722
248 1 1 1.0 -0.5489674011023968 0.8012149837111461 -0.23809523809523814
249 1 1 1.0 -0.1362469419909966 -0.9603829357313695 -0.24310776942355883
250 1 1 1.0 0.7482126587522925 0.6153162874795549 -0.24812030075187974
251 1 1 1.0 -0.9660530624342709 0.05162605819180491 -0.25313283208020043
252 1 1 1.0 0.676536390370921 -0.6896807115285791 -0.25814536340852134
253 1 1 1.0 -0.03293804844876184 0.9641903377456446 -0.26315789473684204
254 1 1 1.0 -0.6261159924862848 -0.7321634971349936 -0.26817042606516295
255 1 1 1.0 0.9548488123421889 0.11676822067010144 -0.27318295739348364
256 1 1 1.0 -0.7817815038440731 0.5580546122935782 -0.27819548872180455
257 1 1 1.0 0.19919639406438475 -0.9381439196472118 -0.28320802005012524
258 1 1 1.0 0.48606729390674874 0.8250257569053677 -0.28822055137844615
259 1 1 1.0 -0.9142512916194191 -0.2795691953318718 -0.29323308270676685
260 1 1 1.0 0.8615859472416778 -0.4107544390806925 -0.29824561403508776
261 1 1 1.0 -0.3572534021190325 0.8834050622138877 -0.30325814536340845
262 1 1 1.0 -0.3327409522130042 -0.8912085326187168 -0.30827067669172936
263 1 1 1.0 0.8458956737792994 0.4316412175107133 -0.31328320802005005
264 1 1 1.0 -0.913698667799907 0.2526708664910719 -0.31829573934837097
265 1 1 1.0 0.5021553138731356 -0.8020672059503616 -0.32330827067669166
266 1 1 1.0 0.17120181900237336 0.9289216264793623 -0.32832080200501257
267 1 1 1.0 -0.7523142507200108 -0.5682536027624268 -0.33333333333333326
268 1 1 1.0 0.9368037033528677 -0.08899942275492578 -0.33834586466165417
269 1 1 1.0 -0.6294336900063774 0.6970783612967391 -0.34335839598997486
270 1 1 1.0 -0.006731584426259162 -0.9373325891968672 -0.3483709273182958
271 1 1 1.0 0.6368441060341427 0.6852369778146308 -0.35338345864661647
272 1 1 1.0 -0.9305572163978091 -0.07493718289237766 -0.3583959899749374
273 1 1 1.0 0.7352523788509187 -0.5721347621306055 -0.36340852130325807
274 1 1 1.0 -0.15535140266868389 0.9165870769690743 -0.368421052631579
275 1 1 1.0 -0.5035076869072198 -0.7791196105837701 -0.3734335839598997
276 1 1 1.0 0.8955910196703556 0.23387018473731844 -0.3784461152882206
277 1 1 1.0 -0.816532041890156 0.43154940725449137 -0.3834586466165413
278 1 1 1.0 0.3098726338923555 -0.8677955373650785 -0.3884711779448622
279 1 1 1.0 0.35687047026880414 0.8472390677882717 -0.3934837092731829
280 1 1 1.0 -0.8334825601760247 -0.38276307046120267 -0.3984962406015038
281 1 1 1.0 0.8710479922873785 -0.2801001001567331 -0.4035087719298245
282 1 1 1.0 -0.4519760177116492 0.7929867742893227 -0.4085213032581454
283 1 1 1.0 -0.20188070815112658 -0.8878254036287838 -0.4135338345864661
284 1 1 1.0 0.7466924903751382 0.516980912990895 -0.418546365914787
285 1 1 1.0 -0.8974980306157646 0.12286230344180624 -0.4235588972431077
286 1 1 1.0 0.577286501918414 -0.695030089503358 -0.4285714285714286
287 1 1 1.0 0.04369685396815207 0.9000530732523158 -0.4335839598997493
288 1 1 1.0 -0.6384720781022571 -0.6324448777294434 -0.4385964912280702
289 1 1 1.0 0.8955380054940203 0.0349673536653178 -0.4436090225563909
290 1 1 1.0 -0.682055130976228 0.577528786900763 -0.4486215538847118
291 1 1 1.0 0.11249130589734194 -0.8840598525159062 -0.4536340852130325
292 1 1 1.0 0.5127437518877627 0.7257665782021306 -0.4586466165413534
293 1 1 1.0 -0.8657839494854045 -0.18825075673213698 -0.4636591478696741
294 1 1 1.0 0.7632815418910495 -0.4446888180808615 -0.468671679197995
295 1 1 1.0 -0.26164157713117914 0.8409321933511467 -0.4736842105263157
296 1 1 1.0 -0.37395900930229514 -0.7943576579220478 -0.4786967418546366
297 1 1 1.0 0.8097808035819798 0.3320849126156415 -0.4837092731829573
298 1 1 1.0 -0.8188096908959414 0.30116720918807366 -0.4887218045112782
299 1 1 1.0 0.3990321041138249 -0.7726576120763478 -0.4937343358395989
300 1 1 1.0 0.22693870029027816 0.836510842010278 -0.4987468671679198
301 1 1 1.0 -0.7299389065725975 -0.4619693291748994 -0.5037593984962405
302 1 1 1.0 0.8473935386044067 -0.15190560935690792 -0.5087719298245614
303 1 1 1.0 -0.5204219231333457 0.682045855789794 -0.5137844611528821
304 1 1 1.0 -0.07670130767755229 -0.8514496990386524 -0.518796992481203
305 1 1 1.0 0.629440548181936 0.5739583426267659 -0.5238095238095237
306 1 1 1.0 -0.848730471171582 0.001954815758748097 -0.5288220551378446
307 1 1 1.0 0.622193737019252 -0.5726216795638428 -0.5338345864661653
308 1 1 1.0 -0.07171473846385505 0.8393454473169172 -0.5388471177944862
309 1 1 1.0 -0.5121199279344631 -0.664793096736434 -0.5438596491228069
310 1 1 1.0 0.823461363156714 0.1437035591588144 -0.5488721804511278
311 1 1 1.0 -0.7014739512472392 0.448493056555598 -0.5538847117794485
312 1 1 1.0 0.21342847207878674 -0.8013002926198451 -0.5588972431077694
313 1 1 1.0 0.38232078871647607 0.7320085933994558 -0.5639097744360901
314 1 1 1.0 -0.7731373551650741 -0.2803320175293219 -0.568922305764411
315 1 1 1.0 0.7562258109975339 -0.3141994996056828 -0.5739348370927317
316 1 1 1.0 -0.343887302122093 0.7392979561973145 -0.5789473684210527
317 1 1 1.0 -0.2447367723032809 -0.7740121108660211 -0.5839598997493733
318 1 1 1.0 0.7001545854564428 0.40360256675936457 -0.5889724310776943
319 1 1 1.0 -0.7853124251334977 0.17454586608244108 -0.593984962406015
320 1 1 1.0 0.45902543082864206 -0.656123202114179 -0.5989974937343359
321 1 1 1.0 0.10424014595993267 0.7901302940617205 -0.6040100250626566
322 1 1 1.0 -0.6076592389617571 -0.5097467754791754 -0.6090225563909775
323 1 1 1.0 0.7885275243939424 -0.03442752275018945 -0.6140350877192982
324 1 1 1.0 -0.5554042320821987 0.5552532614372085 -0.6190476190476191
325 1 1 1.0 0.03429504724624971 -0.7806233268658687 -0.6240601503759398
326 1 1 1.0 0.4994263202962614 0.5956852455187606 -0.6290726817042607
327 1 1 1.0 -0.7665929411732795 -0.10134695435348282 -0.6340852130325814
328 1 1 1.0 0.6303296857647974 -0.4407250394480197 -0.6390977443609023
329 1 1 1.0 -0.16616917186623104 0.7466657612833496 -0.644110275689223
330 1 1 1.0 -0.37971648283151777 -0.6591319853229141 -0.6491228070175439
331 1 1 1.0 0.7211229784745575 0.22822929050217072 -0.6541353383458646
332 1 1 1.0 -0.6819427843529337 0.3169828461809113 -0.6591478696741855
333 1 1 1.0 0.28702630669053775 -0.690294763856557 -0.6641604010025062
334 1 1 1.0 0.25311602109790804 0.6986700698465089 -0.6691729323308271
335 1 1 1.0 -0.6545570163225314 -0.3420951226978329 -0.6741854636591478
336 1 1 1.0 0.7092797998428342 -0.18871208000525977 -0.6791979949874687
337 1 1 1.0 -0.3930107192609182 0.6143277058905013 -0.6842105263157894
338 1 1 1.0 -0.12436573128733745 -0.7137960084597486 -0.6892230576441103
339 1 1 1.0 0.5700628461702012 0.43939196444681533 -0.694235588972431
340 1 1 1.0 -0.7123003923894062 0.06066479422006769 -0.6992481203007519
341 1 1 1.0 0.48090502587566003 -0.5222521332216126 -0.7042606516290726
342 1 1 1.0 -0.0018152568392951682 0.7049313844482279 -0.7092731829573935
343 1 1 1.0 -0.47141429133623725 -0.5172663572003311 -0.7142857142857142
344 1 1 1.0 0.6918827247572978 0.06251663009942765 -0.7192982456140351
345 1 1 1.0 -0.5482452338246008 0.4180921692566963 -0.7243107769423558
346 1 1 1.0 0.12090438790512846 -0.6734015451410857 -0.7293233082706767
347 1 1 1.0 0.3628476330542984 0.5736658172379883 -0.7343358395989974
348 1 1 1.0 -0.6497859873614342 -0.17647140571731842 -0.7393483709273183
349 1 1 1.0 0.5934087320392334 -0.30625630431512835 -0.744360902255639
350 1 1 1.0 -0.22874307378331932 0.6213823808531629 -0.7493734335839599
351 1 1 1.0 -0.2489021944668533 -0.607412144703209 -0.7543859649122806
352 1 1 1.0 0.5885820107184284 0.277281698938399 -0.7593984962406015
353 1 1 1.0 -0.615672338420055 0.19137228805499962 -0.7644110275689222
354 1 1 1.0 0.32169056647230904 -0.5518175119155112 -0.7694235588972431
355 1 1 1.0 0.13425112962185673 0.6182437839165048 -0.7744360902255638
356 1 1 1.0 -0.5115589309270837 -0.3616176247730301 -0.7794486215538847
357 1 1 1.0 0.6152387120956492 -0.0781154706675207 -0.7844611528822054
358 1 1 1.0 -0.3967587584613503 0.4683095018502893 -0.7894736842105263
359 1 1 1.0 -0.023529035155407337 -0.6068262006731552 -0.794486215538847
360 1 1 1.0 0.4226011900336946 0.4268606188674861 -0.7994987468671679
361 1 1 1.0 -0.5932307938648913 -0.028962535570834478 -0.8045112781954886
362 1 1 1.0 0.45172298385142207 -0.37499006343425545 -0.8095238095238095
363 1 1 1.0 -0.07883649436054031 0.5747306817877074 -0.8145363408521302
364 1 1 1.0 -0.32605156031049143 -0.4712006219508253 -0.8195488721804511
365 1 1 1.0 0.551655474882736 0.12559748753676264 -0.8245614035087718
366 1 1 1.0 -0.48520463837844463 0.2763757325362443 -0.8295739348370927
367 1 1 1.0 0.1687816659831296 -0.5243836188531127 -0.8345864661654134
368 1 1 1.0 0.22656255803002304 0.49370328204946023 -0.8395989974937343
369 1 1 1.0 -0.49333950811440086 -0.2079603210093498 -0.844611528822055
370 1 1 1.0 0.49672219288673686 -0.17721743567544862 -0.849624060150376
371 1 1 1.0 -0.24274294025586027 0.4589903718615622 -0.8546365914786966
372 1 1 1.0 -0.12894700517047963 -0.4943440659244221 -0.8596491228070176
373 1 1 1.0 0.42184302866033696 0.2727795502573735 -0.8646616541353382
374 1 1 1.0 -0.48670770109935135 0.08235547843771741 -0.8696741854636592
375 1 1 1.0 0.297762165177379 -0.3824406365131014 -0.8746867167919798
376 1 1 1.0 0.03804173895113742 0.4740063912587584 -0.8796992481203008
377 1 1 1.0 -0.34135961177491364 -0.3174250821118802 -0.8847117794486214
378 1 1 1.0 0.4564855686071009 0.003402420601087704 -0.8897243107769424
379 1 1 1.0 -0.3315436269630267 0.2992069631537724 -0.894736842105263
380 1 1 1.0 0.04139235803351373 -0.4344395673765206 -0.899749373433584
381 1 1 1.0 0.25661840702575545 0.33993071186224705 -0.9047619047619047
382 1 1 1.0 -0.40820723866751724 -0.07534803073838436 -0.9097744360902256
383 1 1 1.0 0.34243011406746654 -0.2142578381784933 -0.9147869674185463
384 1 1 1.0 -0.10468728609235045 0.37816590834662805 -0.9197994987468672
385 1 1 1.0 -0.17281911087210788 -0.33890450564367536 -0.9248120300751879
386 1 1 1.0 0.3447226519314626 0.12881218209514228 -0.9298245614035088
387 1 1 1.0 -0.32921443241215687 0.13303182906448466 -0.9348370927318295
388 1 1 1.0 0.14708285026227963 -0.3083006962572704 -0.9398496240601504
389 1 1 1.0 0.09567441643855591 0.31318032082778524 -0.9448621553884711
390 1 1 1.0 -0.269315899256311 -0.15876720676021452 -0.949874686716792
391 1 1 1.0 0.2905093250174235 -0.06160140332806073 -0.9548872180451127
392 1 1 1.0 -0.162938641193882 0.22813038017482615 -0.9598997493734336
393 1 1 1.0 -0.0318016241494529 -0.2606394967237237 -0.9649122807017543
394 1 1 1.0 0.18494487084634725 0.15824428506600546 -0.9699248120300752
395 1 1 1.0 -0.22235196285343192 0.007535326170739216 -0.9749373433583959
396 1 1 1.0 0.14227372096446406 -0.13948631267767417 -0.9799498746867168
397 1 1 1.0 -0.009266543143271126 0.17252011452361807 -0.9849624060150375
398 1 1 1.0 -0.0896849876854141 -0.1091156561446647 -0.9899749373433584
399 1 1 1.0 0.09900448993483746 0.014072958433360792 -0.9949874686716791
400 1 1 1.0 -1.0104467132303674e-16 6.919228442419035e-17 -1.0
