# Generated using make_nodes_plate.py (hexagonal lattice sampling)

1958 atoms
 1 atom types

-5.0 5.0 xlo xhi
-5.0 5.0 ylo yhi
-0.5 0.5 zlo zhi

Atoms

1 1 1 1.0 -5.0 -4.952026595693 0.0
2 1 1 1.0 -5.0 -4.76156403432 -0.329890833237
3 1 1 1.0 -5.0 -4.76156403432 0.329890833237
4 1 1 1.0 -5.0 -4.571101472947 0.0
5 1 1 1.0 -5.0 -4.380638911574 -0.329890833237
6 1 1 1.0 -5.0 -4.380638911574 0.329890833237
7 1 1 1.0 -5.0 -4.190176350201 0.0
8 1 1 1.0 -5.0 -3.999713788829 -0.329890833237
9 1 1 1.0 -5.0 -3.999713788829 0.329890833237
10 1 1 1.0 -5.0 -3.809251227456 0.0
11 1 1 1.0 -5.0 -3.618788666083 -0.329890833237
12 1 1 1.0 -5.0 -3.618788666083 0.329890833237
13 1 1 1.0 -5.0 -3.42832610471 0.0
14 1 1 1.0 -5.0 -3.237863543337 -0.329890833237
15 1 1 1.0 -5.0 -3.237863543337 0.329890833237
16 1 1 1.0 -5.0 -3.047400981965 0.0
17 1 1 1.0 -5.0 -2.856938420592 -0.329890833237
18 1 1 1.0 -5.0 -2.856938420592 0.329890833237
19 1 1 1.0 -5.0 -2.666475859219 0.0
20 1 1 1.0 -5.0 -2.476013297846 -0.329890833237
21 1 1 1.0 -5.0 -2.476013297846 0.329890833237
22 1 1 1.0 -5.0 -2.285550736473 0.0
23 1 1 1.0 -5.0 -2.095088175101 -0.329890833237
24 1 1 1.0 -5.0 -2.095088175101 0.329890833237
25 1 1 1.0 -5.0 -1.904625613728 0.0
26 1 1 1.0 -5.0 -1.714163052355 -0.329890833237
27 1 1 1.0 -5.0 -1.714163052355 0.329890833237
28 1 1 1.0 -5.0 -1.523700490982 0.0
29 1 1 1.0 -5.0 -1.33323792961 -0.329890833237
30 1 1 1.0 -5.0 -1.33323792961 0.329890833237
31 1 1 1.0 -5.0 -1.142775368237 0.0
32 1 1 1.0 -5.0 -0.952312806864 -0.329890833237
33 1 1 1.0 -5.0 -0.952312806864 0.329890833237
34 1 1 1.0 -5.0 -0.761850245491 0.0
35 1 1 1.0 -5.0 -0.571387684118 -0.329890833237
36 1 1 1.0 -5.0 -0.571387684118 0.329890833237
37 1 1 1.0 -5.0 -0.380925122746 0.0
38 1 1 1.0 -5.0 -0.190462561373 -0.329890833237
39 1 1 1.0 -5.0 -0.190462561373 0.329890833237
40 1 1 1.0 -5.0 0.0 0.0
41 1 1 1.0 -5.0 0.190462561373 -0.329890833237
42 1 1 1.0 -5.0 0.190462561373 0.329890833237
43 1 1 1.0 -5.0 0.380925122746 0.0
44 1 1 1.0 -5.0 0.571387684118 -0.329890833237
45 1 1 1.0 -5.0 0.571387684118 0.329890833237
46 1 1 1.0 -5.0 0.761850245491 0.0
47 1 1 1.0 -5.0 0.952312806864 -0.329890833237
48 1 1 1.0 -5.0 0.952312806864 0.329890833237
49 1 1 1.0 -5.0 1.142775368237 0.0
50 1 1 1.0 -5.0 1.33323792961 -0.329890833237
51 1 1 1.0 -5.0 1.33323792961 0.329890833237
52 1 1 1.0 -5.0 1.523700490982 0.0
53 1 1 1.0 -5.0 1.714163052355 -0.329890833237
54 1 1 1.0 -5.0 1.714163052355 0.329890833237
55 1 1 1.0 -5.0 1.904625613728 0.0
56 1 1 1.0 -5.0 2.095088175101 -0.329890833237
57 1 1 1.0 -5.0 2.095088175101 0.329890833237
58 1 1 1.0 -5.0 2.285550736473 0.0
59 1 1 1.0 -5.0 2.476013297846 -0.329890833237
60 1 1 1.0 -5.0 2.476013297846 0.329890833237
61 1 1 1.0 -5.0 2.666475859219 0.0
62 1 1 1.0 -5.0 2.856938420592 -0.329890833237
63 1 1 1.0 -5.0 2.856938420592 0.329890833237
64 1 1 1.0 -5.0 3.047400981965 0.0
65 1 1 1.0 -5.0 3.237863543337 -0.329890833237
66 1 1 1.0 -5.0 3.237863543337 0.329890833237
67 1 1 1.0 -5.0 3.42832610471 0.0
68 1 1 1.0 -5.0 3.618788666083 -0.329890833237
69 1 1 1.0 -5.0 3.618788666083 0.329890833237
70 1 1 1.0 -5.0 3.809251227456 0.0
71 1 1 1.0 -5.0 3.999713788829 -0.329890833237
72 1 1 1.0 -5.0 3.999713788829 0.329890833237
73 1 1 1.0 -5.0 4.190176350201 0.0
74 1 1 1.0 -5.0 4.380638911574 -0.329890833237
75 1 1 1.0 -5.0 4.380638911574 0.329890833237
76 1 1 1.0 -5.0 4.571101472947 0.0
77 1 1 1.0 -5.0 4.76156403432 -0.329890833237
78 1 1 1.0 -5.0 4.76156403432 0.329890833237
79 1 1 1.0 -5.0 4.952026595693 0.0
80 1 1 1.0 -4.952026595693 -5.0 0.0
81 1 1 1.0 -4.952026595693 -4.618471665323 -0.5
82 1 1 1.0 -4.952026595693 -4.618471665323 0.5
83 1 1 1.0 -4.952026595693 -3.958689998849 -0.5
84 1 1 1.0 -4.952026595693 -3.958689998849 0.5
85 1 1 1.0 -4.952026595693 -3.298908332374 -0.5
86 1 1 1.0 -4.952026595693 -3.298908332374 0.5
87 1 1 1.0 -4.952026595693 -2.639126665899 -0.5
88 1 1 1.0 -4.952026595693 -2.639126665899 0.5
89 1 1 1.0 -4.952026595693 -1.979344999424 -0.5
90 1 1 1.0 -4.952026595693 -1.979344999424 0.5
91 1 1 1.0 -4.952026595693 -1.31956333295 -0.5
92 1 1 1.0 -4.952026595693 -1.31956333295 0.5
93 1 1 1.0 -4.952026595693 -0.659781666475 -0.5
94 1 1 1.0 -4.952026595693 -0.659781666475 0.5
95 1 1 1.0 -4.952026595693 0.0 -0.5
96 1 1 1.0 -4.952026595693 0.0 0.5
97 1 1 1.0 -4.952026595693 0.659781666475 -0.5
98 1 1 1.0 -4.952026595693 0.659781666475 0.5
99 1 1 1.0 -4.952026595693 1.31956333295 -0.5
100 1 1 1.0 -4.952026595693 1.31956333295 0.5
101 1 1 1.0 -4.952026595693 1.979344999424 -0.5
102 1 1 1.0 -4.952026595693 1.979344999424 0.5
103 1 1 1.0 -4.952026595693 2.639126665899 -0.5
104 1 1 1.0 -4.952026595693 2.639126665899 0.5
105 1 1 1.0 -4.952026595693 3.298908332374 -0.5
106 1 1 1.0 -4.952026595693 3.298908332374 0.5
107 1 1 1.0 -4.952026595693 3.958689998849 -0.5
108 1 1 1.0 -4.952026595693 3.958689998849 0.5
109 1 1 1.0 -4.952026595693 4.618471665323 -0.5
110 1 1 1.0 -4.952026595693 4.618471665323 0.5
111 1 1 1.0 -4.952026595693 5.0 0.0
112 1 1 1.0 -4.76156403432 -5.0 -0.329890833237
113 1 1 1.0 -4.76156403432 -5.0 0.329890833237
114 1 1 1.0 -4.76156403432 -4.948362498561 -0.5
115 1 1 1.0 -4.76156403432 -4.948362498561 0.5
116 1 1 1.0 -4.76156403432 -4.288580832086 -0.5
117 1 1 1.0 -4.76156403432 -4.288580832086 0.5
118 1 1 1.0 -4.76156403432 -3.628799165611 -0.5
119 1 1 1.0 -4.76156403432 -3.628799165611 0.5
120 1 1 1.0 -4.76156403432 -2.969017499136 -0.5
121 1 1 1.0 -4.76156403432 -2.969017499136 0.5
122 1 1 1.0 -4.76156403432 -2.309235832662 -0.5
123 1 1 1.0 -4.76156403432 -2.309235832662 0.5
124 1 1 1.0 -4.76156403432 -1.649454166187 -0.5
125 1 1 1.0 -4.76156403432 -1.649454166187 0.5
126 1 1 1.0 -4.76156403432 -0.989672499712 -0.5
127 1 1 1.0 -4.76156403432 -0.989672499712 0.5
128 1 1 1.0 -4.76156403432 -0.329890833237 -0.5
129 1 1 1.0 -4.76156403432 -0.329890833237 0.5
130 1 1 1.0 -4.76156403432 0.329890833237 -0.5
131 1 1 1.0 -4.76156403432 0.329890833237 0.5
132 1 1 1.0 -4.76156403432 0.989672499712 -0.5
133 1 1 1.0 -4.76156403432 0.989672499712 0.5
134 1 1 1.0 -4.76156403432 1.649454166187 -0.5
135 1 1 1.0 -4.76156403432 1.649454166187 0.5
136 1 1 1.0 -4.76156403432 2.309235832662 -0.5
137 1 1 1.0 -4.76156403432 2.309235832662 0.5
138 1 1 1.0 -4.76156403432 2.969017499136 -0.5
139 1 1 1.0 -4.76156403432 2.969017499136 0.5
140 1 1 1.0 -4.76156403432 3.628799165611 -0.5
141 1 1 1.0 -4.76156403432 3.628799165611 0.5
142 1 1 1.0 -4.76156403432 4.288580832086 -0.5
143 1 1 1.0 -4.76156403432 4.288580832086 0.5
144 1 1 1.0 -4.76156403432 4.948362498561 -0.5
145 1 1 1.0 -4.76156403432 4.948362498561 0.5
146 1 1 1.0 -4.76156403432 5.0 -0.329890833237
147 1 1 1.0 -4.76156403432 5.0 0.329890833237
148 1 1 1.0 -4.571101472947 -5.0 0.0
149 1 1 1.0 -4.571101472947 -4.618471665323 -0.5
150 1 1 1.0 -4.571101472947 -4.618471665323 0.5
151 1 1 1.0 -4.571101472947 -3.958689998849 -0.5
152 1 1 1.0 -4.571101472947 -3.958689998849 0.5
153 1 1 1.0 -4.571101472947 -3.298908332374 -0.5
154 1 1 1.0 -4.571101472947 -3.298908332374 0.5
155 1 1 1.0 -4.571101472947 -2.639126665899 -0.5
156 1 1 1.0 -4.571101472947 -2.639126665899 0.5
157 1 1 1.0 -4.571101472947 -1.979344999424 -0.5
158 1 1 1.0 -4.571101472947 -1.979344999424 0.5
159 1 1 1.0 -4.571101472947 -1.31956333295 -0.5
160 1 1 1.0 -4.571101472947 -1.31956333295 0.5
161 1 1 1.0 -4.571101472947 -0.659781666475 -0.5
162 1 1 1.0 -4.571101472947 -0.659781666475 0.5
163 1 1 1.0 -4.571101472947 0.0 -0.5
164 1 1 1.0 -4.571101472947 0.0 0.5
165 1 1 1.0 -4.571101472947 0.659781666475 -0.5
166 1 1 1.0 -4.571101472947 0.659781666475 0.5
167 1 1 1.0 -4.571101472947 1.31956333295 -0.5
168 1 1 1.0 -4.571101472947 1.31956333295 0.5
169 1 1 1.0 -4.571101472947 1.979344999424 -0.5
170 1 1 1.0 -4.571101472947 1.979344999424 0.5
171 1 1 1.0 -4.571101472947 2.639126665899 -0.5
172 1 1 1.0 -4.571101472947 2.639126665899 0.5
173 1 1 1.0 -4.571101472947 3.298908332374 -0.5
174 1 1 1.0 -4.571101472947 3.298908332374 0.5
175 1 1 1.0 -4.571101472947 3.958689998849 -0.5
176 1 1 1.0 -4.571101472947 3.958689998849 0.5
177 1 1 1.0 -4.571101472947 4.618471665323 -0.5
178 1 1 1.0 -4.571101472947 4.618471665323 0.5
179 1 1 1.0 -4.571101472947 5.0 0.0
180 1 1 1.0 -4.380638911574 -5.0 -0.329890833237
181 1 1 1.0 -4.380638911574 -5.0 0.329890833237
182 1 1 1.0 -4.380638911574 -4.948362498561 -0.5
183 1 1 1.0 -4.380638911574 -4.948362498561 0.5
184 1 1 1.0 -4.380638911574 -4.288580832086 -0.5
185 1 1 1.0 -4.380638911574 -4.288580832086 0.5
186 1 1 1.0 -4.380638911574 -3.628799165611 -0.5
187 1 1 1.0 -4.380638911574 -3.628799165611 0.5
188 1 1 1.0 -4.380638911574 -2.969017499136 -0.5
189 1 1 1.0 -4.380638911574 -2.969017499136 0.5
190 1 1 1.0 -4.380638911574 -2.309235832662 -0.5
191 1 1 1.0 -4.380638911574 -2.309235832662 0.5
192 1 1 1.0 -4.380638911574 -1.649454166187 -0.5
193 1 1 1.0 -4.380638911574 -1.649454166187 0.5
194 1 1 1.0 -4.380638911574 -0.989672499712 -0.5
195 1 1 1.0 -4.380638911574 -0.989672499712 0.5
196 1 1 1.0 -4.380638911574 -0.329890833237 -0.5
197 1 1 1.0 -4.380638911574 -0.329890833237 0.5
198 1 1 1.0 -4.380638911574 0.329890833237 -0.5
199 1 1 1.0 -4.380638911574 0.329890833237 0.5
200 1 1 1.0 -4.380638911574 0.989672499712 -0.5
201 1 1 1.0 -4.380638911574 0.989672499712 0.5
202 1 1 1.0 -4.380638911574 1.649454166187 -0.5
203 1 1 1.0 -4.380638911574 1.649454166187 0.5
204 1 1 1.0 -4.380638911574 2.309235832662 -0.5
205 1 1 1.0 -4.380638911574 2.309235832662 0.5
206 1 1 1.0 -4.380638911574 2.969017499136 -0.5
207 1 1 1.0 -4.380638911574 2.969017499136 0.5
208 1 1 1.0 -4.380638911574 3.628799165611 -0.5
209 1 1 1.0 -4.380638911574 3.628799165611 0.5
210 1 1 1.0 -4.380638911574 4.288580832086 -0.5
211 1 1 1.0 -4.380638911574 4.288580832086 0.5
212 1 1 1.0 -4.380638911574 4.948362498561 -0.5
213 1 1 1.0 -4.380638911574 4.948362498561 0.5
214 1 1 1.0 -4.380638911574 5.0 -0.329890833237
215 1 1 1.0 -4.380638911574 5.0 0.329890833237
216 1 1 1.0 -4.190176350201 -5.0 0.0
217 1 1 1.0 -4.190176350201 -4.618471665323 -0.5
218 1 1 1.0 -4.190176350201 -4.618471665323 0.5
219 1 1 1.0 -4.190176350201 -3.958689998849 -0.5
220 1 1 1.0 -4.190176350201 -3.958689998849 0.5
221 1 1 1.0 -4.190176350201 -3.298908332374 -0.5
222 1 1 1.0 -4.190176350201 -3.298908332374 0.5
223 1 1 1.0 -4.190176350201 -2.639126665899 -0.5
224 1 1 1.0 -4.190176350201 -2.639126665899 0.5
225 1 1 1.0 -4.190176350201 -1.979344999424 -0.5
226 1 1 1.0 -4.190176350201 -1.979344999424 0.5
227 1 1 1.0 -4.190176350201 -1.31956333295 -0.5
228 1 1 1.0 -4.190176350201 -1.31956333295 0.5
229 1 1 1.0 -4.190176350201 -0.659781666475 -0.5
230 1 1 1.0 -4.190176350201 -0.659781666475 0.5
231 1 1 1.0 -4.190176350201 0.0 -0.5
232 1 1 1.0 -4.190176350201 0.0 0.5
233 1 1 1.0 -4.190176350201 0.659781666475 -0.5
234 1 1 1.0 -4.190176350201 0.659781666475 0.5
235 1 1 1.0 -4.190176350201 1.31956333295 -0.5
236 1 1 1.0 -4.190176350201 1.31956333295 0.5
237 1 1 1.0 -4.190176350201 1.979344999424 -0.5
238 1 1 1.0 -4.190176350201 1.979344999424 0.5
239 1 1 1.0 -4.190176350201 2.639126665899 -0.5
240 1 1 1.0 -4.190176350201 2.639126665899 0.5
241 1 1 1.0 -4.190176350201 3.298908332374 -0.5
242 1 1 1.0 -4.190176350201 3.298908332374 0.5
243 1 1 1.0 -4.190176350201 3.958689998849 -0.5
244 1 1 1.0 -4.190176350201 3.958689998849 0.5
245 1 1 1.0 -4.190176350201 4.618471665323 -0.5
246 1 1 1.0 -4.190176350201 4.618471665323 0.5
247 1 1 1.0 -4.190176350201 5.0 0.0
248 1 1 1.0 -3.999713788829 -5.0 -0.329890833237
249 1 1 1.0 -3.999713788829 -5.0 0.329890833237
250 1 1 1.0 -3.999713788829 -4.948362498561 -0.5
251 1 1 1.0 -3.999713788829 -4.948362498561 0.5
252 1 1 1.0 -3.999713788829 -4.288580832086 -0.5
253 1 1 1.0 -3.999713788829 -4.288580832086 0.5
254 1 1 1.0 -3.999713788829 -3.628799165611 -0.5
255 1 1 1.0 -3.999713788829 -3.628799165611 0.5
256 1 1 1.0 -3.999713788829 -2.969017499136 -0.5
257 1 1 1.0 -3.999713788829 -2.969017499136 0.5
258 1 1 1.0 -3.999713788829 -2.309235832662 -0.5
259 1 1 1.0 -3.999713788829 -2.309235832662 0.5
260 1 1 1.0 -3.999713788829 -1.649454166187 -0.5
261 1 1 1.0 -3.999713788829 -1.649454166187 0.5
262 1 1 1.0 -3.999713788829 -0.989672499712 -0.5
263 1 1 1.0 -3.999713788829 -0.989672499712 0.5
264 1 1 1.0 -3.999713788829 -0.329890833237 -0.5
265 1 1 1.0 -3.999713788829 -0.329890833237 0.5
266 1 1 1.0 -3.999713788829 0.329890833237 -0.5
267 1 1 1.0 -3.999713788829 0.329890833237 0.5
268 1 1 1.0 -3.999713788829 0.989672499712 -0.5
269 1 1 1.0 -3.999713788829 0.989672499712 0.5
270 1 1 1.0 -3.999713788829 1.649454166187 -0.5
271 1 1 1.0 -3.999713788829 1.649454166187 0.5
272 1 1 1.0 -3.999713788829 2.309235832662 -0.5
273 1 1 1.0 -3.999713788829 2.309235832662 0.5
274 1 1 1.0 -3.999713788829 2.969017499136 -0.5
275 1 1 1.0 -3.999713788829 2.969017499136 0.5
276 1 1 1.0 -3.999713788829 3.628799165611 -0.5
277 1 1 1.0 -3.999713788829 3.628799165611 0.5
278 1 1 1.0 -3.999713788829 4.288580832086 -0.5
279 1 1 1.0 -3.999713788829 4.288580832086 0.5
280 1 1 1.0 -3.999713788829 4.948362498561 -0.5
281 1 1 1.0 -3.999713788829 4.948362498561 0.5
282 1 1 1.0 -3.999713788829 5.0 -0.329890833237
283 1 1 1.0 -3.999713788829 5.0 0.329890833237
284 1 1 1.0 -3.809251227456 -5.0 0.0
285 1 1 1.0 -3.809251227456 -4.618471665323 -0.5
286 1 1 1.0 -3.809251227456 -4.618471665323 0.5
287 1 1 1.0 -3.809251227456 -3.958689998849 -0.5
288 1 1 1.0 -3.809251227456 -3.958689998849 0.5
289 1 1 1.0 -3.809251227456 -3.298908332374 -0.5
290 1 1 1.0 -3.809251227456 -3.298908332374 0.5
291 1 1 1.0 -3.809251227456 -2.639126665899 -0.5
292 1 1 1.0 -3.809251227456 -2.639126665899 0.5
293 1 1 1.0 -3.809251227456 -1.979344999424 -0.5
294 1 1 1.0 -3.809251227456 -1.979344999424 0.5
295 1 1 1.0 -3.809251227456 -1.31956333295 -0.5
296 1 1 1.0 -3.809251227456 -1.31956333295 0.5
297 1 1 1.0 -3.809251227456 -0.659781666475 -0.5
298 1 1 1.0 -3.809251227456 -0.659781666475 0.5
299 1 1 1.0 -3.809251227456 0.0 -0.5
300 1 1 1.0 -3.809251227456 0.0 0.5
301 1 1 1.0 -3.809251227456 0.659781666475 -0.5
302 1 1 1.0 -3.809251227456 0.659781666475 0.5
303 1 1 1.0 -3.809251227456 1.31956333295 -0.5
304 1 1 1.0 -3.809251227456 1.31956333295 0.5
305 1 1 1.0 -3.809251227456 1.979344999424 -0.5
306 1 1 1.0 -3.809251227456 1.979344999424 0.5
307 1 1 1.0 -3.809251227456 2.639126665899 -0.5
308 1 1 1.0 -3.809251227456 2.639126665899 0.5
309 1 1 1.0 -3.809251227456 3.298908332374 -0.5
310 1 1 1.0 -3.809251227456 3.298908332374 0.5
311 1 1 1.0 -3.809251227456 3.958689998849 -0.5
312 1 1 1.0 -3.809251227456 3.958689998849 0.5
313 1 1 1.0 -3.809251227456 4.618471665323 -0.5
314 1 1 1.0 -3.809251227456 4.618471665323 0.5
315 1 1 1.0 -3.809251227456 5.0 0.0
316 1 1 1.0 -3.618788666083 -5.0 -0.329890833237
317 1 1 1.0 -3.618788666083 -5.0 0.329890833237
318 1 1 1.0 -3.618788666083 -4.948362498561 -0.5
319 1 1 1.0 -3.618788666083 -4.948362498561 0.5
320 1 1 1.0 -3.618788666083 -4.288580832086 -0.5
321 1 1 1.0 -3.618788666083 -4.288580832086 0.5
322 1 1 1.0 -3.618788666083 -3.628799165611 -0.5
323 1 1 1.0 -3.618788666083 -3.628799165611 0.5
324 1 1 1.0 -3.618788666083 -2.969017499136 -0.5
325 1 1 1.0 -3.618788666083 -2.969017499136 0.5
326 1 1 1.0 -3.618788666083 -2.309235832662 -0.5
327 1 1 1.0 -3.618788666083 -2.309235832662 0.5
328 1 1 1.0 -3.618788666083 -1.649454166187 -0.5
329 1 1 1.0 -3.618788666083 -1.649454166187 0.5
330 1 1 1.0 -3.618788666083 -0.989672499712 -0.5
331 1 1 1.0 -3.618788666083 -0.989672499712 0.5
332 1 1 1.0 -3.618788666083 -0.329890833237 -0.5
333 1 1 1.0 -3.618788666083 -0.329890833237 0.5
334 1 1 1.0 -3.618788666083 0.329890833237 -0.5
335 1 1 1.0 -3.618788666083 0.329890833237 0.5
336 1 1 1.0 -3.618788666083 0.989672499712 -0.5
337 1 1 1.0 -3.618788666083 0.989672499712 0.5
338 1 1 1.0 -3.618788666083 1.649454166187 -0.5
339 1 1 1.0 -3.618788666083 1.649454166187 0.5
340 1 1 1.0 -3.618788666083 2.309235832662 -0.5
341 1 1 1.0 -3.618788666083 2.309235832662 0.5
342 1 1 1.0 -3.618788666083 2.969017499136 -0.5
343 1 1 1.0 -3.618788666083 2.969017499136 0.5
344 1 1 1.0 -3.618788666083 3.628799165611 -0.5
345 1 1 1.0 -3.618788666083 3.628799165611 0.5
346 1 1 1.0 -3.618788666083 4.288580832086 -0.5
347 1 1 1.0 -3.618788666083 4.288580832086 0.5
348 1 1 1.0 -3.618788666083 4.948362498561 -0.5
349 1 1 1.0 -3.618788666083 4.948362498561 0.5
350 1 1 1.0 -3.618788666083 5.0 -0.329890833237
351 1 1 1.0 -3.618788666083 5.0 0.329890833237
352 1 1 1.0 -3.42832610471 -5.0 0.0
353 1 1 1.0 -3.42832610471 -4.618471665323 -0.5
354 1 1 1.0 -3.42832610471 -4.618471665323 0.5
355 1 1 1.0 -3.42832610471 -3.958689998849 -0.5
356 1 1 1.0 -3.42832610471 -3.958689998849 0.5
357 1 1 1.0 -3.42832610471 -3.298908332374 -0.5
358 1 1 1.0 -3.42832610471 -3.298908332374 0.5
359 1 1 1.0 -3.42832610471 -2.639126665899 -0.5
360 1 1 1.0 -3.42832610471 -2.639126665899 0.5
361 1 1 1.0 -3.42832610471 -1.979344999424 -0.5
362 1 1 1.0 -3.42832610471 -1.979344999424 0.5
363 1 1 1.0 -3.42832610471 -1.31956333295 -0.5
364 1 1 1.0 -3.42832610471 -1.31956333295 0.5
365 1 1 1.0 -3.42832610471 -0.659781666475 -0.5
366 1 1 1.0 -3.42832610471 -0.659781666475 0.5
367 1 1 1.0 -3.42832610471 0.0 -0.5
368 1 1 1.0 -3.42832610471 0.0 0.5
369 1 1 1.0 -3.42832610471 0.659781666475 -0.5
370 1 1 1.0 -3.42832610471 0.659781666475 0.5
371 1 1 1.0 -3.42832610471 1.31956333295 -0.5
372 1 1 1.0 -3.42832610471 1.31956333295 0.5
373 1 1 1.0 -3.42832610471 1.979344999424 -0.5
374 1 1 1.0 -3.42832610471 1.979344999424 0.5
375 1 1 1.0 -3.42832610471 2.639126665899 -0.5
376 1 1 1.0 -3.42832610471 2.639126665899 0.5
377 1 1 1.0 -3.42832610471 3.298908332374 -0.5
378 1 1 1.0 -3.42832610471 3.298908332374 0.5
379 1 1 1.0 -3.42832610471 3.958689998849 -0.5
380 1 1 1.0 -3.42832610471 3.958689998849 0.5
381 1 1 1.0 -3.42832610471 4.618471665323 -0.5
382 1 1 1.0 -3.42832610471 4.618471665323 0.5
383 1 1 1.0 -3.42832610471 5.0 0.0
384 1 1 1.0 -3.237863543337 -5.0 -0.329890833237
385 1 1 1.0 -3.237863543337 -5.0 0.329890833237
386 1 1 1.0 -3.237863543337 -4.948362498561 -0.5
387 1 1 1.0 -3.237863543337 -4.948362498561 0.5
388 1 1 1.0 -3.237863543337 -4.288580832086 -0.5
389 1 1 1.0 -3.237863543337 -4.288580832086 0.5
390 1 1 1.0 -3.237863543337 -3.628799165611 -0.5
391 1 1 1.0 -3.237863543337 -3.628799165611 0.5
392 1 1 1.0 -3.237863543337 -2.969017499136 -0.5
393 1 1 1.0 -3.237863543337 -2.969017499136 0.5
394 1 1 1.0 -3.237863543337 -2.309235832662 -0.5
395 1 1 1.0 -3.237863543337 -2.309235832662 0.5
396 1 1 1.0 -3.237863543337 -1.649454166187 -0.5
397 1 1 1.0 -3.237863543337 -1.649454166187 0.5
398 1 1 1.0 -3.237863543337 -0.989672499712 -0.5
399 1 1 1.0 -3.237863543337 -0.989672499712 0.5
400 1 1 1.0 -3.237863543337 -0.329890833237 -0.5
401 1 1 1.0 -3.237863543337 -0.329890833237 0.5
402 1 1 1.0 -3.237863543337 0.329890833237 -0.5
403 1 1 1.0 -3.237863543337 0.329890833237 0.5
404 1 1 1.0 -3.237863543337 0.989672499712 -0.5
405 1 1 1.0 -3.237863543337 0.989672499712 0.5
406 1 1 1.0 -3.237863543337 1.649454166187 -0.5
407 1 1 1.0 -3.237863543337 1.649454166187 0.5
408 1 1 1.0 -3.237863543337 2.309235832662 -0.5
409 1 1 1.0 -3.237863543337 2.309235832662 0.5
410 1 1 1.0 -3.237863543337 2.969017499136 -0.5
411 1 1 1.0 -3.237863543337 2.969017499136 0.5
412 1 1 1.0 -3.237863543337 3.628799165611 -0.5
413 1 1 1.0 -3.237863543337 3.628799165611 0.5
414 1 1 1.0 -3.237863543337 4.288580832086 -0.5
415 1 1 1.0 -3.237863543337 4.288580832086 0.5
416 1 1 1.0 -3.237863543337 4.948362498561 -0.5
417 1 1 1.0 -3.237863543337 4.948362498561 0.5
418 1 1 1.0 -3.237863543337 5.0 -0.329890833237
419 1 1 1.0 -3.237863543337 5.0 0.329890833237
420 1 1 1.0 -3.047400981965 -5.0 0.0
421 1 1 1.0 -3.047400981965 -4.618471665323 -0.5
422 1 1 1.0 -3.047400981965 -4.618471665323 0.5
423 1 1 1.0 -3.047400981965 -3.958689998849 -0.5
424 1 1 1.0 -3.047400981965 -3.958689998849 0.5
425 1 1 1.0 -3.047400981965 -3.298908332374 -0.5
426 1 1 1.0 -3.047400981965 -3.298908332374 0.5
427 1 1 1.0 -3.047400981965 -2.639126665899 -0.5
428 1 1 1.0 -3.047400981965 -2.639126665899 0.5
429 1 1 1.0 -3.047400981965 -1.979344999424 -0.5
430 1 1 1.0 -3.047400981965 -1.979344999424 0.5
431 1 1 1.0 -3.047400981965 -1.31956333295 -0.5
432 1 1 1.0 -3.047400981965 -1.31956333295 0.5
433 1 1 1.0 -3.047400981965 -0.659781666475 -0.5
434 1 1 1.0 -3.047400981965 -0.659781666475 0.5
435 1 1 1.0 -3.047400981965 0.0 -0.5
436 1 1 1.0 -3.047400981965 0.0 0.5
437 1 1 1.0 -3.047400981965 0.659781666475 -0.5
438 1 1 1.0 -3.047400981965 0.659781666475 0.5
439 1 1 1.0 -3.047400981965 1.31956333295 -0.5
440 1 1 1.0 -3.047400981965 1.31956333295 0.5
441 1 1 1.0 -3.047400981965 1.979344999424 -0.5
442 1 1 1.0 -3.047400981965 1.979344999424 0.5
443 1 1 1.0 -3.047400981965 2.639126665899 -0.5
444 1 1 1.0 -3.047400981965 2.639126665899 0.5
445 1 1 1.0 -3.047400981965 3.298908332374 -0.5
446 1 1 1.0 -3.047400981965 3.298908332374 0.5
447 1 1 1.0 -3.047400981965 3.958689998849 -0.5
448 1 1 1.0 -3.047400981965 3.958689998849 0.5
449 1 1 1.0 -3.047400981965 4.618471665323 -0.5
450 1 1 1.0 -3.047400981965 4.618471665323 0.5
451 1 1 1.0 -3.047400981965 5.0 0.0
452 1 1 1.0 -2.856938420592 -5.0 -0.329890833237
453 1 1 1.0 -2.856938420592 -5.0 0.329890833237
454 1 1 1.0 -2.856938420592 -4.948362498561 -0.5
455 1 1 1.0 -2.856938420592 -4.948362498561 0.5
456 1 1 1.0 -2.856938420592 -4.288580832086 -0.5
457 1 1 1.0 -2.856938420592 -4.288580832086 0.5
458 1 1 1.0 -2.856938420592 -3.628799165611 -0.5
459 1 1 1.0 -2.856938420592 -3.628799165611 0.5
460 1 1 1.0 -2.856938420592 -2.969017499136 -0.5
461 1 1 1.0 -2.856938420592 -2.969017499136 0.5
462 1 1 1.0 -2.856938420592 -2.309235832662 -0.5
463 1 1 1.0 -2.856938420592 -2.309235832662 0.5
464 1 1 1.0 -2.856938420592 -1.649454166187 -0.5
465 1 1 1.0 -2.856938420592 -1.649454166187 0.5
466 1 1 1.0 -2.856938420592 -0.989672499712 -0.5
467 1 1 1.0 -2.856938420592 -0.989672499712 0.5
468 1 1 1.0 -2.856938420592 -0.329890833237 -0.5
469 1 1 1.0 -2.856938420592 -0.329890833237 0.5
470 1 1 1.0 -2.856938420592 0.329890833237 -0.5
471 1 1 1.0 -2.856938420592 0.329890833237 0.5
472 1 1 1.0 -2.856938420592 0.989672499712 -0.5
473 1 1 1.0 -2.856938420592 0.989672499712 0.5
474 1 1 1.0 -2.856938420592 1.649454166187 -0.5
475 1 1 1.0 -2.856938420592 1.649454166187 0.5
476 1 1 1.0 -2.856938420592 2.309235832662 -0.5
477 1 1 1.0 -2.856938420592 2.309235832662 0.5
478 1 1 1.0 -2.856938420592 2.969017499136 -0.5
479 1 1 1.0 -2.856938420592 2.969017499136 0.5
480 1 1 1.0 -2.856938420592 3.628799165611 -0.5
481 1 1 1.0 -2.856938420592 3.628799165611 0.5
482 1 1 1.0 -2.856938420592 4.288580832086 -0.5
483 1 1 1.0 -2.856938420592 4.288580832086 0.5
484 1 1 1.0 -2.856938420592 4.948362498561 -0.5
485 1 1 1.0 -2.856938420592 4.948362498561 0.5
486 1 1 1.0 -2.856938420592 5.0 -0.329890833237
487 1 1 1.0 -2.856938420592 5.0 0.329890833237
488 1 1 1.0 -2.666475859219 -5.0 0.0
489 1 1 1.0 -2.666475859219 -4.618471665323 -0.5
490 1 1 1.0 -2.666475859219 -4.618471665323 0.5
491 1 1 1.0 -2.666475859219 -3.958689998849 -0.5
492 1 1 1.0 -2.666475859219 -3.958689998849 0.5
493 1 1 1.0 -2.666475859219 -3.298908332374 -0.5
494 1 1 1.0 -2.666475859219 -3.298908332374 0.5
495 1 1 1.0 -2.666475859219 -2.639126665899 -0.5
496 1 1 1.0 -2.666475859219 -2.639126665899 0.5
497 1 1 1.0 -2.666475859219 -1.979344999424 -0.5
498 1 1 1.0 -2.666475859219 -1.979344999424 0.5
499 1 1 1.0 -2.666475859219 -1.31956333295 -0.5
500 1 1 1.0 -2.666475859219 -1.31956333295 0.5
501 1 1 1.0 -2.666475859219 -0.659781666475 -0.5
502 1 1 1.0 -2.666475859219 -0.659781666475 0.5
503 1 1 1.0 -2.666475859219 0.0 -0.5
504 1 1 1.0 -2.666475859219 0.0 0.5
505 1 1 1.0 -2.666475859219 0.659781666475 -0.5
506 1 1 1.0 -2.666475859219 0.659781666475 0.5
507 1 1 1.0 -2.666475859219 1.31956333295 -0.5
508 1 1 1.0 -2.666475859219 1.31956333295 0.5
509 1 1 1.0 -2.666475859219 1.979344999424 -0.5
510 1 1 1.0 -2.666475859219 1.979344999424 0.5
511 1 1 1.0 -2.666475859219 2.639126665899 -0.5
512 1 1 1.0 -2.666475859219 2.639126665899 0.5
513 1 1 1.0 -2.666475859219 3.298908332374 -0.5
514 1 1 1.0 -2.666475859219 3.298908332374 0.5
515 1 1 1.0 -2.666475859219 3.958689998849 -0.5
516 1 1 1.0 -2.666475859219 3.958689998849 0.5
517 1 1 1.0 -2.666475859219 4.618471665323 -0.5
518 1 1 1.0 -2.666475859219 4.618471665323 0.5
519 1 1 1.0 -2.666475859219 5.0 0.0
520 1 1 1.0 -2.476013297846 -5.0 -0.329890833237
521 1 1 1.0 -2.476013297846 -5.0 0.329890833237
522 1 1 1.0 -2.476013297846 -4.948362498561 -0.5
523 1 1 1.0 -2.476013297846 -4.948362498561 0.5
524 1 1 1.0 -2.476013297846 -4.288580832086 -0.5
525 1 1 1.0 -2.476013297846 -4.288580832086 0.5
526 1 1 1.0 -2.476013297846 -3.628799165611 -0.5
527 1 1 1.0 -2.476013297846 -3.628799165611 0.5
528 1 1 1.0 -2.476013297846 -2.969017499136 -0.5
529 1 1 1.0 -2.476013297846 -2.969017499136 0.5
530 1 1 1.0 -2.476013297846 -2.309235832662 -0.5
531 1 1 1.0 -2.476013297846 -2.309235832662 0.5
532 1 1 1.0 -2.476013297846 -1.649454166187 -0.5
533 1 1 1.0 -2.476013297846 -1.649454166187 0.5
534 1 1 1.0 -2.476013297846 -0.989672499712 -0.5
535 1 1 1.0 -2.476013297846 -0.989672499712 0.5
536 1 1 1.0 -2.476013297846 -0.329890833237 -0.5
537 1 1 1.0 -2.476013297846 -0.329890833237 0.5
538 1 1 1.0 -2.476013297846 0.329890833237 -0.5
539 1 1 1.0 -2.476013297846 0.329890833237 0.5
540 1 1 1.0 -2.476013297846 0.989672499712 -0.5
541 1 1 1.0 -2.476013297846 0.989672499712 0.5
542 1 1 1.0 -2.476013297846 1.649454166187 -0.5
543 1 1 1.0 -2.476013297846 1.649454166187 0.5
544 1 1 1.0 -2.476013297846 2.309235832662 -0.5
545 1 1 1.0 -2.476013297846 2.309235832662 0.5
546 1 1 1.0 -2.476013297846 2.969017499136 -0.5
547 1 1 1.0 -2.476013297846 2.969017499136 0.5
548 1 1 1.0 -2.476013297846 3.628799165611 -0.5
549 1 1 1.0 -2.476013297846 3.628799165611 0.5
550 1 1 1.0 -2.476013297846 4.288580832086 -0.5
551 1 1 1.0 -2.476013297846 4.288580832086 0.5
552 1 1 1.0 -2.476013297846 4.948362498561 -0.5
553 1 1 1.0 -2.476013297846 4.948362498561 0.5
554 1 1 1.0 -2.476013297846 5.0 -0.329890833237
555 1 1 1.0 -2.476013297846 5.0 0.329890833237
556 1 1 1.0 -2.285550736473 -5.0 0.0
557 1 1 1.0 -2.285550736473 -4.618471665323 -0.5
558 1 1 1.0 -2.285550736473 -4.618471665323 0.5
559 1 1 1.0 -2.285550736473 -3.958689998849 -0.5
560 1 1 1.0 -2.285550736473 -3.958689998849 0.5
561 1 1 1.0 -2.285550736473 -3.298908332374 -0.5
562 1 1 1.0 -2.285550736473 -3.298908332374 0.5
563 1 1 1.0 -2.285550736473 -2.639126665899 -0.5
564 1 1 1.0 -2.285550736473 -2.639126665899 0.5
565 1 1 1.0 -2.285550736473 -1.979344999424 -0.5
566 1 1 1.0 -2.285550736473 -1.979344999424 0.5
567 1 1 1.0 -2.285550736473 -1.31956333295 -0.5
568 1 1 1.0 -2.285550736473 -1.31956333295 0.5
569 1 1 1.0 -2.285550736473 -0.659781666475 -0.5
570 1 1 1.0 -2.285550736473 -0.659781666475 0.5
571 1 1 1.0 -2.285550736473 0.0 -0.5
572 1 1 1.0 -2.285550736473 0.0 0.5
573 1 1 1.0 -2.285550736473 0.659781666475 -0.5
574 1 1 1.0 -2.285550736473 0.659781666475 0.5
575 1 1 1.0 -2.285550736473 1.31956333295 -0.5
576 1 1 1.0 -2.285550736473 1.31956333295 0.5
577 1 1 1.0 -2.285550736473 1.979344999424 -0.5
578 1 1 1.0 -2.285550736473 1.979344999424 0.5
579 1 1 1.0 -2.285550736473 2.639126665899 -0.5
580 1 1 1.0 -2.285550736473 2.639126665899 0.5
581 1 1 1.0 -2.285550736473 3.298908332374 -0.5
582 1 1 1.0 -2.285550736473 3.298908332374 0.5
583 1 1 1.0 -2.285550736473 3.958689998849 -0.5
584 1 1 1.0 -2.285550736473 3.958689998849 0.5
585 1 1 1.0 -2.285550736473 4.618471665323 -0.5
586 1 1 1.0 -2.285550736473 4.618471665323 0.5
587 1 1 1.0 -2.285550736473 5.0 0.0
588 1 1 1.0 -2.095088175101 -5.0 -0.329890833237
589 1 1 1.0 -2.095088175101 -5.0 0.329890833237
590 1 1 1.0 -2.095088175101 -4.948362498561 -0.5
591 1 1 1.0 -2.095088175101 -4.948362498561 0.5
592 1 1 1.0 -2.095088175101 -4.288580832086 -0.5
593 1 1 1.0 -2.095088175101 -4.288580832086 0.5
594 1 1 1.0 -2.095088175101 -3.628799165611 -0.5
595 1 1 1.0 -2.095088175101 -3.628799165611 0.5
596 1 1 1.0 -2.095088175101 -2.969017499136 -0.5
597 1 1 1.0 -2.095088175101 -2.969017499136 0.5
598 1 1 1.0 -2.095088175101 -2.309235832662 -0.5
599 1 1 1.0 -2.095088175101 -2.309235832662 0.5
600 1 1 1.0 -2.095088175101 -1.649454166187 -0.5
601 1 1 1.0 -2.095088175101 -1.649454166187 0.5
602 1 1 1.0 -2.095088175101 -0.989672499712 -0.5
603 1 1 1.0 -2.095088175101 -0.989672499712 0.5
604 1 1 1.0 -2.095088175101 -0.329890833237 -0.5
605 1 1 1.0 -2.095088175101 -0.329890833237 0.5
606 1 1 1.0 -2.095088175101 0.329890833237 -0.5
607 1 1 1.0 -2.095088175101 0.329890833237 0.5
608 1 1 1.0 -2.095088175101 0.989672499712 -0.5
609 1 1 1.0 -2.095088175101 0.989672499712 0.5
610 1 1 1.0 -2.095088175101 1.649454166187 -0.5
611 1 1 1.0 -2.095088175101 1.649454166187 0.5
612 1 1 1.0 -2.095088175101 2.309235832662 -0.5
613 1 1 1.0 -2.095088175101 2.309235832662 0.5
614 1 1 1.0 -2.095088175101 2.969017499136 -0.5
615 1 1 1.0 -2.095088175101 2.969017499136 0.5
616 1 1 1.0 -2.095088175101 3.628799165611 -0.5
617 1 1 1.0 -2.095088175101 3.628799165611 0.5
618 1 1 1.0 -2.095088175101 4.288580832086 -0.5
619 1 1 1.0 -2.095088175101 4.288580832086 0.5
620 1 1 1.0 -2.095088175101 4.948362498561 -0.5
621 1 1 1.0 -2.095088175101 4.948362498561 0.5
622 1 1 1.0 -2.095088175101 5.0 -0.329890833237
623 1 1 1.0 -2.095088175101 5.0 0.329890833237
624 1 1 1.0 -1.904625613728 -5.0 0.0
625 1 1 1.0 -1.904625613728 -4.618471665323 -0.5
626 1 1 1.0 -1.904625613728 -4.618471665323 0.5
627 1 1 1.0 -1.904625613728 -3.958689998849 -0.5
628 1 1 1.0 -1.904625613728 -3.958689998849 0.5
629 1 1 1.0 -1.904625613728 -3.298908332374 -0.5
630 1 1 1.0 -1.904625613728 -3.298908332374 0.5
631 1 1 1.0 -1.904625613728 -2.639126665899 -0.5
632 1 1 1.0 -1.904625613728 -2.639126665899 0.5
633 1 1 1.0 -1.904625613728 -1.979344999424 -0.5
634 1 1 1.0 -1.904625613728 -1.979344999424 0.5
635 1 1 1.0 -1.904625613728 -1.31956333295 -0.5
636 1 1 1.0 -1.904625613728 -1.31956333295 0.5
637 1 1 1.0 -1.904625613728 -0.659781666475 -0.5
638 1 1 1.0 -1.904625613728 -0.659781666475 0.5
639 1 1 1.0 -1.904625613728 0.0 -0.5
640 1 1 1.0 -1.904625613728 0.0 0.5
641 1 1 1.0 -1.904625613728 0.659781666475 -0.5