# Generated using make_nodes_plate.py (hexagonal lattice sampling)

2382 atoms
 1 atom types

-2.5 2.5 xlo xhi
-2.5 2.5 ylo yhi
-0.5 0.5 zlo zhi

Atoms

1 1 1 1.0 -2.5 -2.476013297846 -0.329890833237
2 1 1 1.0 -2.5 -2.476013297846 0.0
3 1 1 1.0 -2.5 -2.476013297846 0.329890833237
4 1 1 1.0 -2.5 -2.38078201716 -0.494836249856
5 1 1 1.0 -2.5 -2.38078201716 -0.164945416619
6 1 1 1.0 -2.5 -2.38078201716 0.164945416619
7 1 1 1.0 -2.5 -2.38078201716 0.494836249856
8 1 1 1.0 -2.5 -2.285550736473 -0.329890833237
9 1 1 1.0 -2.5 -2.285550736473 0.0
10 1 1 1.0 -2.5 -2.285550736473 0.329890833237
11 1 1 1.0 -2.5 -2.190319455787 -0.494836249856
12 1 1 1.0 -2.5 -2.190319455787 -0.164945416619
13 1 1 1.0 -2.5 -2.190319455787 0.164945416619
14 1 1 1.0 -2.5 -2.190319455787 0.494836249856
15 1 1 1.0 -2.5 -2.095088175101 -0.329890833237
16 1 1 1.0 -2.5 -2.095088175101 0.0
17 1 1 1.0 -2.5 -2.095088175101 0.329890833237
18 1 1 1.0 -2.5 -1.999856894414 -0.494836249856
19 1 1 1.0 -2.5 -1.999856894414 -0.164945416619
20 1 1 1.0 -2.5 -1.999856894414 0.164945416619
21 1 1 1.0 -2.5 -1.999856894414 0.494836249856
22 1 1 1.0 -2.5 -1.904625613728 -0.329890833237
23 1 1 1.0 -2.5 -1.904625613728 0.0
24 1 1 1.0 -2.5 -1.904625613728 0.329890833237
25 1 1 1.0 -2.5 -1.809394333042 -0.494836249856
26 1 1 1.0 -2.5 -1.809394333042 -0.164945416619
27 1 1 1.0 -2.5 -1.809394333042 0.164945416619
28 1 1 1.0 -2.5 -1.809394333042 0.494836249856
29 1 1 1.0 -2.5 -1.714163052355 -0.329890833237
30 1 1 1.0 -2.5 -1.714163052355 0.0
31 1 1 1.0 -2.5 -1.714163052355 0.329890833237
32 1 1 1.0 -2.5 -1.618931771669 -0.494836249856
33 1 1 1.0 -2.5 -1.618931771669 -0.164945416619
34 1 1 1.0 -2.5 -1.618931771669 0.164945416619
35 1 1 1.0 -2.5 -1.618931771669 0.494836249856
36 1 1 1.0 -2.5 -1.523700490982 -0.329890833237
37 1 1 1.0 -2.5 -1.523700490982 0.0
38 1 1 1.0 -2.5 -1.523700490982 0.329890833237
39 1 1 1.0 -2.5 -1.428469210296 -0.494836249856
40 1 1 1.0 -2.5 -1.428469210296 -0.164945416619
41 1 1 1.0 -2.5 -1.428469210296 0.164945416619
42 1 1 1.0 -2.5 -1.428469210296 0.494836249856
43 1 1 1.0 -2.5 -1.33323792961 -0.329890833237
44 1 1 1.0 -2.5 -1.33323792961 0.0
45 1 1 1.0 -2.5 -1.33323792961 0.329890833237
46 1 1 1.0 -2.5 -1.238006648923 -0.494836249856
47 1 1 1.0 -2.5 -1.238006648923 -0.164945416619
48 1 1 1.0 -2.5 -1.238006648923 0.164945416619
49 1 1 1.0 -2.5 -1.238006648923 0.494836249856
50 1 1 1.0 -2.5 -1.142775368237 -0.329890833237
51 1 1 1.0 -2.5 -1.142775368237 0.0
52 1 1 1.0 -2.5 -1.142775368237 0.329890833237
53 1 1 1.0 -2.5 -1.04754408755 -0.494836249856
54 1 1 1.0 -2.5 -1.04754408755 -0.164945416619
55 1 1 1.0 -2.5 -1.04754408755 0.164945416619
56 1 1 1.0 -2.5 -1.04754408755 0.494836249856
57 1 1 1.0 -2.5 -0.952312806864 -0.329890833237
58 1 1 1.0 -2.5 -0.952312806864 0.0
59 1 1 1.0 -2.5 -0.952312806864 0.329890833237
60 1 1 1.0 -2.5 -0.857081526178 -0.494836249856
61 1 1 1.0 -2.5 -0.857081526178 -0.164945416619
62 1 1 1.0 -2.5 -0.857081526178 0.164945416619
63 1 1 1.0 -2.5 -0.857081526178 0.494836249856
64 1 1 1.0 -2.5 -0.761850245491 -0.329890833237
65 1 1 1.0 -2.5 -0.761850245491 0.0
66 1 1 1.0 -2.5 -0.761850245491 0.329890833237
67 1 1 1.0 -2.5 -0.666618964805 -0.494836249856
68 1 1 1.0 -2.5 -0.666618964805 -0.164945416619
69 1 1 1.0 -2.5 -0.666618964805 0.164945416619
70 1 1 1.0 -2.5 -0.666618964805 0.494836249856
71 1 1 1.0 -2.5 -0.571387684118 -0.329890833237
72 1 1 1.0 -2.5 -0.571387684118 0.0
73 1 1 1.0 -2.5 -0.571387684118 0.329890833237
74 1 1 1.0 -2.5 -0.476156403432 -0.494836249856
75 1 1 1.0 -2.5 -0.476156403432 -0.164945416619
76 1 1 1.0 -2.5 -0.476156403432 0.164945416619
77 1 1 1.0 -2.5 -0.476156403432 0.494836249856
78 1 1 1.0 -2.5 -0.380925122746 -0.329890833237
79 1 1 1.0 -2.5 -0.380925122746 0.0
80 1 1 1.0 -2.5 -0.380925122746 0.329890833237
81 1 1 1.0 -2.5 -0.285693842059 -0.494836249856
82 1 1 1.0 -2.5 -0.285693842059 -0.164945416619
83 1 1 1.0 -2.5 -0.285693842059 0.164945416619
84 1 1 1.0 -2.5 -0.285693842059 0.494836249856
85 1 1 1.0 -2.5 -0.190462561373 -0.329890833237
86 1 1 1.0 -2.5 -0.190462561373 0.0
87 1 1 1.0 -2.5 -0.190462561373 0.329890833237
88 1 1 1.0 -2.5 -0.095231280686 -0.494836249856
89 1 1 1.0 -2.5 -0.095231280686 -0.164945416619
90 1 1 1.0 -2.5 -0.095231280686 0.164945416619
91 1 1 1.0 -2.5 -0.095231280686 0.494836249856
92 1 1 1.0 -2.5 0.0 -0.329890833237
93 1 1 1.0 -2.5 0.0 0.0
94 1 1 1.0 -2.5 0.0 0.329890833237
95 1 1 1.0 -2.5 0.095231280686 -0.494836249856
96 1 1 1.0 -2.5 0.095231280686 -0.164945416619
97 1 1 1.0 -2.5 0.095231280686 0.164945416619
98 1 1 1.0 -2.5 0.095231280686 0.494836249856
99 1 1 1.0 -2.5 0.190462561373 -0.329890833237
100 1 1 1.0 -2.5 0.190462561373 0.0
101 1 1 1.0 -2.5 0.190462561373 0.329890833237
102 1 1 1.0 -2.5 0.285693842059 -0.494836249856
103 1 1 1.0 -2.5 0.285693842059 -0.164945416619
104 1 1 1.0 -2.5 0.285693842059 0.164945416619
105 1 1 1.0 -2.5 0.285693842059 0.494836249856
106 1 1 1.0 -2.5 0.380925122746 -0.329890833237
107 1 1 1.0 -2.5 0.380925122746 0.0
108 1 1 1.0 -2.5 0.380925122746 0.329890833237
109 1 1 1.0 -2.5 0.476156403432 -0.494836249856
110 1 1 1.0 -2.5 0.476156403432 -0.164945416619
111 1 1 1.0 -2.5 0.476156403432 0.164945416619
112 1 1 1.0 -2.5 0.476156403432 0.494836249856
113 1 1 1.0 -2.5 0.571387684118 -0.329890833237
114 1 1 1.0 -2.5 0.571387684118 0.0
115 1 1 1.0 -2.5 0.571387684118 0.329890833237
116 1 1 1.0 -2.5 0.666618964805 -0.494836249856
117 1 1 1.0 -2.5 0.666618964805 -0.164945416619
118 1 1 1.0 -2.5 0.666618964805 0.164945416619
119 1 1 1.0 -2.5 0.666618964805 0.494836249856
120 1 1 1.0 -2.5 0.761850245491 -0.329890833237
121 1 1 1.0 -2.5 0.761850245491 0.0
122 1 1 1.0 -2.5 0.761850245491 0.329890833237
123 1 1 1.0 -2.5 0.857081526178 -0.494836249856
124 1 1 1.0 -2.5 0.857081526178 -0.164945416619
125 1 1 1.0 -2.5 0.857081526178 0.164945416619
126 1 1 1.0 -2.5 0.857081526178 0.494836249856
127 1 1 1.0 -2.5 0.952312806864 -0.329890833237
128 1 1 1.0 -2.5 0.952312806864 0.0
129 1 1 1.0 -2.5 0.952312806864 0.329890833237
130 1 1 1.0 -2.5 1.04754408755 -0.494836249856
131 1 1 1.0 -2.5 1.04754408755 -0.164945416619
132 1 1 1.0 -2.5 1.04754408755 0.164945416619
133 1 1 1.0 -2.5 1.04754408755 0.494836249856
134 1 1 1.0 -2.5 1.142775368237 -0.329890833237
135 1 1 1.0 -2.5 1.142775368237 0.0
136 1 1 1.0 -2.5 1.142775368237 0.329890833237
137 1 1 1.0 -2.5 1.238006648923 -0.494836249856
138 1 1 1.0 -2.5 1.238006648923 -0.164945416619
139 1 1 1.0 -2.5 1.238006648923 0.164945416619
140 1 1 1.0 -2.5 1.238006648923 0.494836249856
141 1 1 1.0 -2.5 1.33323792961 -0.329890833237
142 1 1 1.0 -2.5 1.33323792961 0.0
143 1 1 1.0 -2.5 1.33323792961 0.329890833237
144 1 1 1.0 -2.5 1.428469210296 -0.494836249856
145 1 1 1.0 -2.5 1.428469210296 -0.164945416619
146 1 1 1.0 -2.5 1.428469210296 0.164945416619
147 1 1 1.0 -2.5 1.428469210296 0.494836249856
148 1 1 1.0 -2.5 1.523700490982 -0.329890833237
149 1 1 1.0 -2.5 1.523700490982 0.0
150 1 1 1.0 -2.5 1.523700490982 0.329890833237
151 1 1 1.0 -2.5 1.618931771669 -0.494836249856
152 1 1 1.0 -2.5 1.618931771669 -0.164945416619
153 1 1 1.0 -2.5 1.618931771669 0.164945416619
154 1 1 1.0 -2.5 1.618931771669 0.494836249856
155 1 1 1.0 -2.5 1.714163052355 -0.329890833237
156 1 1 1.0 -2.5 1.714163052355 0.0
157 1 1 1.0 -2.5 1.714163052355 0.329890833237
158 1 1 1.0 -2.5 1.809394333042 -0.494836249856
159 1 1 1.0 -2.5 1.809394333042 -0.164945416619
160 1 1 1.0 -2.5 1.809394333042 0.164945416619
161 1 1 1.0 -2.5 1.809394333042 0.494836249856
162 1 1 1.0 -2.5 1.904625613728 -0.329890833237
163 1 1 1.0 -2.5 1.904625613728 0.0
164 1 1 1.0 -2.5 1.904625613728 0.329890833237
165 1 1 1.0 -2.5 1.999856894414 -0.494836249856
166 1 1 1.0 -2.5 1.999856894414 -0.164945416619
167 1 1 1.0 -2.5 1.999856894414 0.164945416619
168 1 1 1.0 -2.5 1.999856894414 0.494836249856
169 1 1 1.0 -2.5 2.095088175101 -0.329890833237
170 1 1 1.0 -2.5 2.095088175101 0.0
171 1 1 1.0 -2.5 2.095088175101 0.329890833237
172 1 1 1.0 -2.5 2.190319455787 -0.494836249856
173 1 1 1.0 -2.5 2.190319455787 -0.164945416619
174 1 1 1.0 -2.5 2.190319455787 0.164945416619
175 1 1 1.0 -2.5 2.190319455787 0.494836249856
176 1 1 1.0 -2.5 2.285550736473 -0.329890833237
177 1 1 1.0 -2.5 2.285550736473 0.0
178 1 1 1.0 -2.5 2.285550736473 0.329890833237
179 1 1 1.0 -2.5 2.38078201716 -0.494836249856
180 1 1 1.0 -2.5 2.38078201716 -0.164945416619
181 1 1 1.0 -2.5 2.38078201716 0.164945416619
182 1 1 1.0 -2.5 2.38078201716 0.494836249856
183 1 1 1.0 -2.5 2.476013297846 -0.329890833237
184 1 1 1.0 -2.5 2.476013297846 0.0
185 1 1 1.0 -2.5 2.476013297846 0.329890833237
186 1 1 1.0 -2.476013297846 -2.5 -0.329890833237
187 1 1 1.0 -2.476013297846 -2.5 0.0
188 1 1 1.0 -2.476013297846 -2.5 0.329890833237
189 1 1 1.0 -2.476013297846 -2.309235832662 -0.5
190 1 1 1.0 -2.476013297846 -2.309235832662 0.5
191 1 1 1.0 -2.476013297846 -1.979344999424 -0.5
192 1 1 1.0 -2.476013297846 -1.979344999424 0.5
193 1 1 1.0 -2.476013297846 -1.649454166187 -0.5
194 1 1 1.0 -2.476013297846 -1.649454166187 0.5
195 1 1 1.0 -2.476013297846 -1.31956333295 -0.5
196 1 1 1.0 -2.476013297846 -1.31956333295 0.5
197 1 1 1.0 -2.476013297846 -0.989672499712 -0.5
198 1 1 1.0 -2.476013297846 -0.989672499712 0.5
199 1 1 1.0 -2.476013297846 -0.659781666475 -0.5
200 1 1 1.0 -2.476013297846 -0.659781666475 0.5
201 1 1 1.0 -2.476013297846 -0.329890833237 -0.5
202 1 1 1.0 -2.476013297846 -0.329890833237 0.5
203 1 1 1.0 -2.476013297846 0.0 -0.5
204 1 1 1.0 -2.476013297846 0.0 0.5
205 1 1 1.0 -2.476013297846 0.329890833237 -0.5
206 1 1 1.0 -2.476013297846 0.329890833237 0.5
207 1 1 1.0 -2.476013297846 0.659781666475 -0.5
208 1 1 1.0 -2.476013297846 0.659781666475 0.5
209 1 1 1.0 -2.476013297846 0.989672499712 -0.5
210 1 1 1.0 -2.476013297846 0.989672499712 0.5
211 1 1 1.0 -2.476013297846 1.31956333295 -0.5
212 1 1 1.0 -2.476013297846 1.31956333295 0.5
213 1 1 1.0 -2.476013297846 1.649454166187 -0.5
214 1 1 1.0 -2.476013297846 1.649454166187 0.5
215 1 1 1.0 -2.476013297846 1.979344999424 -0.5
216 1 1 1.0 -2.476013297846 1.979344999424 0.5
217 1 1 1.0 -2.476013297846 2.309235832662 -0.5
218 1 1 1.0 -2.476013297846 2.309235832662 0.5
219 1 1 1.0 -2.476013297846 2.5 -0.329890833237
220 1 1 1.0 -2.476013297846 2.5 0.0
221 1 1 1.0 -2.476013297846 2.5 0.329890833237
222 1 1 1.0 -2.38078201716 -2.5 -0.494836249856
223 1 1 1.0 -2.38078201716 -2.5 -0.164945416619
224 1 1 1.0 -2.38078201716 -2.5 0.164945416619
225 1 1 1.0 -2.38078201716 -2.5 0.494836249856
226 1 1 1.0 -2.38078201716 -2.47418124928 -0.5
227 1 1 1.0 -2.38078201716 -2.47418124928 0.5
228 1 1 1.0 -2.38078201716 -2.144290416043 -0.5
229 1 1 1.0 -2.38078201716 -2.144290416043 0.5
230 1 1 1.0 -2.38078201716 -1.814399582806 -0.5
231 1 1 1.0 -2.38078201716 -1.814399582806 0.5
232 1 1 1.0 -2.38078201716 -1.484508749568 -0.5
233 1 1 1.0 -2.38078201716 -1.484508749568 0.5
234 1 1 1.0 -2.38078201716 -1.154617916331 -0.5
235 1 1 1.0 -2.38078201716 -1.154617916331 0.5
236 1 1 1.0 -2.38078201716 -0.824727083093 -0.5
237 1 1 1.0 -2.38078201716 -0.824727083093 0.5
238 1 1 1.0 -2.38078201716 -0.494836249856 -0.5
239 1 1 1.0 -2.38078201716 -0.494836249856 0.5
240 1 1 1.0 -2.38078201716 -0.164945416619 -0.5
241 1 1 1.0 -2.38078201716 -0.164945416619 0.5
242 1 1 1.0 -2.38078201716 0.164945416619 -0.5
243 1 1 1.0 -2.38078201716 0.164945416619 0.5
244 1 1 1.0 -2.38078201716 0.494836249856 -0.5
245 1 1 1.0 -2.38078201716 0.494836249856 0.5
246 1 1 1.0 -2.38078201716 0.824727083093 -0.5
247 1 1 1.0 -2.38078201716 0.824727083093 0.5
248 1 1 1.0 -2.38078201716 1.154617916331 -0.5
249 1 1 1.0 -2.38078201716 1.154617916331 0.5
250 1 1 1.0 -2.38078201716 1.484508749568 -0.5
251 1 1 1.0 -2.38078201716 1.484508749568 0.5
252 1 1 1.0 -2.38078201716 1.814399582806 -0.5
253 1 1 1.0 -2.38078201716 1.814399582806 0.5
254 1 1 1.0 -2.38078201716 2.144290416043 -0.5
255 1 1 1.0 -2.38078201716 2.144290416043 0.5
256 1 1 1.0 -2.38078201716 2.47418124928 -0.5
257 1 1 1.0 -2.38078201716 2.47418124928 0.5
258 1 1 1.0 -2.38078201716 2.5 -0.494836249856
259 1 1 1.0 -2.38078201716 2.5 -0.164945416619
260 1 1 1.0 -2.38078201716 2.5 0.164945416619
261 1 1 1.0 -2.38078201716 2.5 0.494836249856
262 1 1 1.0 -2.285550736473 -2.5 -0.329890833237
263 1 1 1.0 -2.285550736473 -2.5 0.0
264 1 1 1.0 -2.285550736473 -2.5 0.329890833237
265 1 1 1.0 -2.285550736473 -2.309235832662 -0.5
266 1 1 1.0 -2.285550736473 -2.309235832662 0.5
267 1 1 1.0 -2.285550736473 -1.979344999424 -0.5
268 1 1 1.0 -2.285550736473 -1.979344999424 0.5
269 1 1 1.0 -2.285550736473 -1.649454166187 -0.5
270 1 1 1.0 -2.285550736473 -1.649454166187 0.5
271 1 1 1.0 -2.285550736473 -1.31956333295 -0.5
272 1 1 1.0 -2.285550736473 -1.31956333295 0.5
273 1 1 1.0 -2.285550736473 -0.989672499712 -0.5
274 1 1 1.0 -2.285550736473 -0.989672499712 0.5
275 1 1 1.0 -2.285550736473 -0.659781666475 -0.5
276 1 1 1.0 -2.285550736473 -0.659781666475 0.5
277 1 1 1.0 -2.285550736473 -0.329890833237 -0.5
278 1 1 1.0 -2.285550736473 -0.329890833237 0.5
279 1 1 1.0 -2.285550736473 0.0 -0.5
280 1 1 1.0 -2.285550736473 0.0 0.5
281 1 1 1.0 -2.285550736473 0.329890833237 -0.5
282 1 1 1.0 -2.285550736473 0.329890833237 0.5
283 1 1 1.0 -2.285550736473 0.659781666475 -0.5
284 1 1 1.0 -2.285550736473 0.659781666475 0.5
285 1 1 1.0 -2.285550736473 0.989672499712 -0.5
286 1 1 1.0 -2.285550736473 0.989672499712 0.5
287 1 1 1.0 -2.285550736473 1.31956333295 -0.5
288 1 1 1.0 -2.285550736473 1.31956333295 0.5
289 1 1 1.0 -2.285550736473 1.649454166187 -0.5
290 1 1 1.0 -2.285550736473 1.649454166187 0.5
291 1 1 1.0 -2.285550736473 1.979344999424 -0.5
292 1 1 1.0 -2.285550736473 1.979344999424 0.5
293 1 1 1.0 -2.285550736473 2.309235832662 -0.5
294 1 1 1.0 -2.285550736473 2.309235832662 0.5
295 1 1 1.0 -2.285550736473 2.5 -0.329890833237
296 1 1 1.0 -2.285550736473 2.5 0.0
297 1 1 1.0 -2.285550736473 2.5 0.329890833237
298 1 1 1.0 -2.190319455787 -2.5 -0.494836249856
299 1 1 1.0 -2.190319455787 -2.5 -0.164945416619
300 1 1 1.0 -2.190319455787 -2.5 0.164945416619
301 1 1 1.0 -2.190319455787 -2.5 0.494836249856
302 1 1 1.0 -2.190319455787 -2.47418124928 -0.5
303 1 1 1.0 -2.190319455787 -2.47418124928 0.5
304 1 1 1.0 -2.190319455787 -2.144290416043 -0.5
305 1 1 1.0 -2.190319455787 -2.144290416043 0.5
306 1 1 1.0 -2.190319455787 -1.814399582806 -0.5
307 1 1 1.0 -2.190319455787 -1.814399582806 0.5
308 1 1 1.0 -2.190319455787 -1.484508749568 -0.5
309 1 1 1.0 -2.190319455787 -1.484508749568 0.5
310 1 1 1.0 -2.190319455787 -1.154617916331 -0.5
311 1 1 1.0 -2.190319455787 -1.154617916331 0.5
312 1 1 1.0 -2.190319455787 -0.824727083093 -0.5
313 1 1 1.0 -2.190319455787 -0.824727083093 0.5
314 1 1 1.0 -2.190319455787 -0.494836249856 -0.5
315 1 1 1.0 -2.190319455787 -0.494836249856 0.5
316 1 1 1.0 -2.190319455787 -0.164945416619 -0.5
317 1 1 1.0 -2.190319455787 -0.164945416619 0.5
318 1 1 1.0 -2.190319455787 0.164945416619 -0.5
319 1 1 1.0 -2.190319455787 0.164945416619 0.5
320 1 1 1.0 -2.190319455787 0.494836249856 -0.5
321 1 1 1.0 -2.190319455787 0.494836249856 0.5
322 1 1 1.0 -2.190319455787 0.824727083093 -0.5
323 1 1 1.0 -2.190319455787 0.824727083093 0.5
324 1 1 1.0 -2.190319455787 1.154617916331 -0.5
325 1 1 1.0 -2.190319455787 1.154617916331 0.5
326 1 1 1.0 -2.190319455787 1.484508749568 -0.5
327 1 1 1.0 -2.190319455787 1.484508749568 0.5
328 1 1 1.0 -2.190319455787 1.814399582806 -0.5
329 1 1 1.0 -2.190319455787 1.814399582806 0.5
330 1 1 1.0 -2.190319455787 2.144290416043 -0.5
331 1 1 1.0 -2.190319455787 2.144290416043 0.5
332 1 1 1.0 -2.190319455787 2.47418124928 -0.5
333 1 1 1.0 -2.190319455787 2.47418124928 0.5
334 1 1 1.0 -2.190319455787 2.5 -0.494836249856
335 1 1 1.0 -2.190319455787 2.5 -0.164945416619
336 1 1 1.0 -2.190319455787 2.5 0.164945416619
337 1 1 1.0 -2.190319455787 2.5 0.494836249856
338 1 1 1.0 -2.095088175101 -2.5 -0.329890833237
339 1 1 1.0 -2.095088175101 -2.5 0.0
340 1 1 1.0 -2.095088175101 -2.5 0.329890833237
341 1 1 1.0 -2.095088175101 -2.309235832662 -0.5
342 1 1 1.0 -2.095088175101 -2.309235832662 0.5
343 1 1 1.0 -2.095088175101 -1.979344999424 -0.5
344 1 1 1.0 -2.095088175101 -1.979344999424 0.5
345 1 1 1.0 -2.095088175101 -1.649454166187 -0.5
346 1 1 1.0 -2.095088175101 -1.649454166187 0.5
347 1 1 1.0 -2.095088175101 -1.31956333295 -0.5
348 1 1 1.0 -2.095088175101 -1.31956333295 0.5
349 1 1 1.0 -2.095088175101 -0.989672499712 -0.5
350 1 1 1.0 -2.095088175101 -0.989672499712 0.5
351 1 1 1.0 -2.095088175101 -0.659781666475 -0.5
352 1 1 1.0 -2.095088175101 -0.659781666475 0.5
353 1 1 1.0 -2.095088175101 -0.329890833237 -0.5
354 1 1 1.0 -2.095088175101 -0.329890833237 0.5
355 1 1 1.0 -2.095088175101 0.0 -0.5
356 1 1 1.0 -2.095088175101 0.0 0.5
357 1 1 1.0 -2.095088175101 0.329890833237 -0.5
358 1 1 1.0 -2.095088175101 0.329890833237 0.5
359 1 1 1.0 -2.095088175101 0.659781666475 -0.5
360 1 1 1.0 -2.095088175101 0.659781666475 0.5
361 1 1 1.0 -2.095088175101 0.989672499712 -0.5
362 1 1 1.0 -2.095088175101 0.989672499712 0.5
363 1 1 1.0 -2.095088175101 1.31956333295 -0.5
364 1 1 1.0 -2.095088175101 1.31956333295 0.5
365 1 1 1.0 -2.095088175101 1.649454166187 -0.5
366 1 1 1.0 -2.095088175101 1.649454166187 0.5
367 1 1 1.0 -2.095088175101 1.979344999424 -0.5
368 1 1 1.0 -2.095088175101 1.979344999424 0.5
369 1 1 1.0 -2.095088175101 2.309235832662 -0.5
370 1 1 1.0 -2.095088175101 2.309235832662 0.5
371 1 1 1.0 -2.095088175101 2.5 -0.329890833237
372 1 1 1.0 -2.095088175101 2.5 0.0
373 1 1 1.0 -2.095088175101 2.5 0.329890833237
374 1 1 1.0 -1.999856894414 -2.5 -0.494836249856
375 1 1 1.0 -1.999856894414 -2.5 -0.164945416619
376 1 1 1.0 -1.999856894414 -2.5 0.164945416619
377 1 1 1.0 -1.999856894414 -2.5 0.494836249856
378 1 1 1.0 -1.999856894414 -2.47418124928 -0.5
379 1 1 1.0 -1.999856894414 -2.47418124928 0.5
380 1 1 1.0 -1.999856894414 -2.144290416043 -0.5
381 1 1 1.0 -1.999856894414 -2.144290416043 0.5
382 1 1 1.0 -1.999856894414 -1.814399582806 -0.5
383 1 1 1.0 -1.999856894414 -1.814399582806 0.5
384 1 1 1.0 -1.999856894414 -1.484508749568 -0.5
385 1 1 1.0 -1.999856894414 -1.484508749568 0.5
386 1 1 1.0 -1.999856894414 -1.154617916331 -0.5
387 1 1 1.0 -1.999856894414 -1.154617916331 0.5
388 1 1 1.0 -1.999856894414 -0.824727083093 -0.5
389 1 1 1.0 -1.999856894414 -0.824727083093 0.5
390 1 1 1.0 -1.999856894414 -0.494836249856 -0.5
391 1 1 1.0 -1.999856894414 -0.494836249856 0.5
392 1 1 1.0 -1.999856894414 -0.164945416619 -0.5
393 1 1 1.0 -1.999856894414 -0.164945416619 0.5
394 1 1 1.0 -1.999856894414 0.164945416619 -0.5
395 1 1 1.0 -1.999856894414 0.164945416619 0.5
396 1 1 1.0 -1.999856894414 0.494836249856 -0.5
397 1 1 1.0 -1.999856894414 0.494836249856 0.5
398 1 1 1.0 -1.999856894414 0.824727083093 -0.5
399 1 1 1.0 -1.999856894414 0.824727083093 0.5
400 1 1 1.0 -1.999856894414 1.154617916331 -0.5
401 1 1 1.0 -1.999856894414 1.154617916331 0.5
402 1 1 1.0 -1.999856894414 1.484508749568 -0.5
403 1 1 1.0 -1.999856894414 1.484508749568 0.5
404 1 1 1.0 -1.999856894414 1.814399582806 -0.5
405 1 1 1.0 -1.999856894414 1.814399582806 0.5
406 1 1 1.0 -1.999856894414 2.144290416043 -0.5
407 1 1 1.0 -1.999856894414 2.144290416043 0.5
408 1 1 1.0 -1.999856894414 2.47418124928 -0.5
409 1 1 1.0 -1.999856894414 2.47418124928 0.5
410 1 1 1.0 -1.999856894414 2.5 -0.494836249856
411 1 1 1.0 -1.999856894414 2.5 -0.164945416619
412 1 1 1.0 -1.999856894414 2.5 0.164945416619
413 1 1 1.0 -1.999856894414 2.5 0.494836249856
414 1 1 1.0 -1.904625613728 -2.5 -0.329890833237
415 1 1 1.0 -1.904625613728 -2.5 0.0
416 1 1 1.0 -1.904625613728 -2.5 0.329890833237
417 1 1 1.0 -1.904625613728 -2.309235832662 -0.5
418 1 1 1.0 -1.904625613728 -2.309235832662 0.5
419 1 1 1.0 -1.904625613728 -1.979344999424 -0.5
420 1 1 1.0 -1.904625613728 -1.979344999424 0.5
421 1 1 1.0 -1.904625613728 -1.649454166187 -0.5
422 1 1 1.0 -1.904625613728 -1.649454166187 0.5
423 1 1 1.0 -1.904625613728 -1.31956333295 -0.5
424 1 1 1.0 -1.904625613728 -1.31956333295 0.5
425 1 1 1.0 -1.904625613728 -0.989672499712 -0.5
426 1 1 1.0 -1.904625613728 -0.989672499712 0.5
427 1 1 1.0 -1.904625613728 -0.659781666475 -0.5
428 1 1 1.0 -1.904625613728 -0.659781666475 0.5
429 1 1 1.0 -1.904625613728 -0.329890833237 -0.5
430 1 1 1.0 -1.904625613728 -0.329890833237 0.5
431 1 1 1.0 -1.904625613728 0.0 -0.5
432 1 1 1.0 -1.904625613728 0.0 0.5
433 1 1 1.0 -1.904625613728 0.329890833237 -0.5
434 1 1 1.0 -1.904625613728 0.329890833237 0.5
435 1 1 1.0 -1.904625613728 0.659781666475 -0.5
436 1 1 1.0 -1.904625613728 0.659781666475 0.5
437 1 1 1.0 -1.904625613728 0.989672499712 -0.5
438 1 1 1.0 -1.904625613728 0.989672499712 0.5
439 1 1 1.0 -1.904625613728 1.31956333295 -0.5
440 1 1 1.0 -1.904625613728 1.31956333295 0.5
441 1 1 1.0 -1.904625613728 1.649454166187 -0.5
442 1 1 1.0 -1.904625613728 1.649454166187 0.5
443 1 1 1.0 -1.904625613728 1.979344999424 -0.5
444 1 1 1.0 -1.904625613728 1.979344999424 0.5
445 1 1 1.0 -1.904625613728 2.309235832662 -0.5
446 1 1 1.0 -1.904625613728 2.309235832662 0.5
447 1 1 1.0 -1.904625613728 2.5 -0.329890833237
448 1 1 1.0 -1.904625613728 2.5 0.0
449 1 1 1.0 -1.904625613728 2.5 0.329890833237
450 1 1 1.0 -1.809394333042 -2.5 -0.494836249856
451 1 1 1.0 -1.809394333042 -2.5 -0.164945416619
452 1 1 1.0 -1.809394333042 -2.5 0.164945416619
453 1 1 1.0 -1.809394333042 -2.5 0.494836249856
454 1 1 1.0 -1.809394333042 -2.47418124928 -0.5
455 1 1 1.0 -1.809394333042 -2.47418124928 0.5
456 1 1 1.0 -1.809394333042 -2.144290416043 -0.5
457 1 1 1.0 -1.809394333042 -2.144290416043 0.5
458 1 1 1.0 -1.809394333042 -1.814399582806 -0.5
459 1 1 1.0 -1.809394333042 -1.814399582806 0.5
460 1 1 1.0 -1.809394333042 -1.484508749568 -0.5
461 1 1 1.0 -1.809394333042 -1.484508749568 0.5
462 1 1 1.0 -1.809394333042 -1.154617916331 -0.5
463 1 1 1.0 -1.809394333042 -1.154617916331 0.5
464 1 1 1.0 -1.809394333042 -0.824727083093 -0.5
465 1 1 1.0 -1.809394333042 -0.824727083093 0.5
466 1 1 1.0 -1.809394333042 -0.494836249856 -0.5
467 1 1 1.0 -1.809394333042 -0.494836249856 0.5
468 1 1 1.0 -1.809394333042 -0.164945416619 -0.5
469 1 1 1.0 -1.809394333042 -0.164945416619 0.5
470 1 1 1.0 -1.809394333042 0.164945416619 -0.5
471 1 1 1.0 -1.809394333042 0.164945416619 0.5
472 1 1 1.0 -1.809394333042 0.494836249856 -0.5
473 1 1 1.0 -1.809394333042 0.494836249856 0.5
474 1 1 1.0 -1.809394333042 0.824727083093 -0.5
475 1 1 1.0 -1.809394333042 0.824727083093 0.5
476 1 1 1.0 -1.809394333042 1.154617916331 -0.5
477 1 1 1.0 -1.809394333042 1.154617916331 0.5
478 1 1 1.0 -1.809394333042 1.484508749568 -0.5
479 1 1 1.0 -1.809394333042 1.484508749568 0.5
480 1 1 1.0 -1.809394333042 1.814399582806 -0.5
481 1 1 1.0 -1.809394333042 1.814399582806 0.5
482 1 1 1.0 -1.809394333042 2.144290416043 -0.5
483 1 1 1.0 -1.809394333042 2.144290416043 0.5
484 1 1 1.0 -1.809394333042 2.47418124928 -0.5
485 1 1 1.0 -1.809394333042 2.47418124928 0.5
486 1 1 1.0 -1.809394333042 2.5 -0.494836249856
487 1 1 1.0 -1.809394333042 2.5 -0.164945416619
488 1 1 1.0 -1.809394333042 2.5 0.164945416619
489 1 1 1.0 -1.809394333042 2.5 0.494836249856
490 1 1 1.0 -1.714163052355 -2.5 -0.329890833237
491 1 1 1.0 -1.714163052355 -2.5 0.0
492 1 1 1.0 -1.714163052355 -2.5 0.329890833237
493 1 1 1.0 -1.714163052355 -2.309235832662 -0.5
494 1 1 1.0 -1.714163052355 -2.309235832662 0.5
495 1 1 1.0 -1.714163052355 -1.979344999424 -0.5
496 1 1 1.0 -1.714163052355 -1.979344999424 0.5
497 1 1 1.0 -1.714163052355 -1.649454166187 -0.5
498 1 1 1.0 -1.714163052355 -1.649454166187 0.5
499 1 1 1.0 -1.714163052355 -1.31956333295 -0.5
500 1 1 1.0 -1.714163052355 -1.31956333295 0.5
501 1 1 1.0 -1.714163052355 -0.989672499712 -0.5
502 1 1 1.0 -1.714163052355 -0.989672499712 0.5
503 1 1 1.0 -1.714163052355 -0.659781666475 -0.5
504 1 1 1.0 -1.714163052355 -0.659781666475 0.5
505 1 1 1.0 -1.714163052355 -0.329890833237 -0.5
506 1 1 1.0 -1.714163052355 -0.329890833237 0.5
507 1 1 1.0 -1.714163052355 0.0 -0.5
508 1 1 1.0 -1.714163052355 0.0 0.5
509 1 1 1.0 -1.714163052355 0.329890833237 -0.5
510 1 1 1.0 -1.714163052355 0.329890833237 0.5
511 1 1 1.0 -1.714163052355 0.659781666475 -0.5
512 1 1 1.0 -1.714163052355 0.659781666475 0.5
513 1 1 1.0 -1.714163052355 0.989672499712 -0.5
514 1 1 1.0 -1.714163052355 0.989672499712 0.5
515 1 1 1.0 -1.714163052355 1.31956333295 -0.5
516 1 1 1.0 -1.714163052355 1.31956333295 0.5
517 1 1 1.0 -1.714163052355 1.649454166187 -0.5
518 1 1 1.0 -1.714163052355 1.649454166187 0.5
519 1 1 1.0 -1.714163052355 1.979344999424 -0.5
520 1 1 1.0 -1.714163052355 1.979344999424 0.5
521 1 1 1.0 -1.714163052355 2.309235832662 -0.5
522 1 1 1.0 -1.714163052355 2.309235832662 0.5
523 1 1 1.0 -1.714163052355 2.5 -0.329890833237
524 1 1 1.0 -1.714163052355 2.5 0.0
525 1 1 1.0 -1.714163052355 2.5 0.329890833237
526 1 1 1.0 -1.618931771669 -2.5 -0.494836249856
527 1 1 1.0 -1.618931771669 -2.5 -0.164945416619
528 1 1 1.0 -1.618931771669 -2.5 0.164945416619
529 1 1 1.0 -1.618931771669 -2.5 0.494836249856
530 1 1 1.0 -1.618931771669 -2.47418124928 -0.5
531 1 1 1.0 -1.618931771669 -2.47418124928 0.5
532 1 1 1.0 -1.618931771669 -2.144290416043 -0.5
533 1 1 1.0 -1.618931771669 -2.144290416043 0.5
534 1 1 1.0 -1.618931771669 -1.814399582806 -0.5
535 1 1 1.0 -1.618931771669 -1.814399582806 0.5
536 1 1 1.0 -1.618931771669 -1.484508749568 -0.5
537 1 1 1.0 -1.618931771669 -1.484508749568 0.5
538 1 1 1.0 -1.618931771669 -1.154617916331 -0.5
539 1 1 1.0 -1.618931771669 -1.154617916331 0.5
540 1 1 1.0 -1.618931771669 -0.824727083093 -0.5
541 1 1 1.0 -1.618931771669 -0.824727083093 0.5
542 1 1 1.0 -1.618931771669 -0.494836249856 -0.5
543 1 1 1.0 -1.618931771669 -0.494836249856 0.5
544 1 1 1.0 -1.618931771669 -0.164945416619 -0.5
545 1 1 1.0 -1.618931771669 -0.164945416619 0.5
546 1 1 1.0 -1.618931771669 0.164945416619 -0.5
547 1 1 1.0 -1.618931771669 0.164945416619 0.5
548 1 1 1.0 -1.618931771669 0.494836249856 -0.5
549 1 1 1.0 -1.618931771669 0.494836249856 0.5
550 1 1 1.0 -1.618931771669 0.824727083093 -0.5
551 1 1 1.0 -1.618931771669 0.824727083093 0.5
552 1 1 1.0 -1.618931771669 1.154617916331 -0.5
553 1 1 1.0 -1.618931771669 1.154617916331 0.5
554 1 1 1.0 -1.618931771669 1.484508749568 -0.5
555 1 1 1.0 -1.618931771669 1.484508749568 0.5
556 1 1 1.0 -1.618931771669 1.814399582806 -0.5
557 1 1 1.0 -1.618931771669 1.814399582806 0.5
558 1 1 1.0 -1.618931771669 2.144290416043 -0.5
559 1 1 1.0 -1.618931771669 2.144290416043 0.5
560 1 1 1.0 -1.618931771669 2.47418124928 -0.5
561 1 1 1.0 -1.618931771669 2.47418124928 0.5
562 1 1 1.0 -1.618931771669 2.5 -0.494836249856
563 1 1 1.0 -1.618931771669 2.5 -0.164945416619
564 1 1 1.0 -1.618931771669 2.5 0.164945416619
565 1 1 1.0 -1.618931771669 2.5 0.494836249856
566 1 1 1.0 -1.523700490982 -2.5 -0.329890833237
567 1 1 1.0 -1.523700490982 -2.5 0.0
568 1 1 1.0 -1.523700490982 -2.5 0.329890833237
569 1 1 1.0 -1.523700490982 -2.309235832662 -0.5
570 1 1 1.0 -1.523700490982 -2.309235832662 0.5
571 1 1 1.0 -1.523700490982 -1.979344999424 -0.5
572 1 1 1.0 -1.523700490982 -1.979344999424 0.5
573 1 1 1.0 -1.523700490982 -1.649454166187 -0.5
574 1 1 1.0 -1.523700490982 -1.649454166187 0.5
575 1 1 1.0 -1.523700490982 -1.31956333295 -0.5
576 1 1 1.0 -1.523700490982 -1.31956333295 0.5
577 1 1 1.0 -1.523700490982 -0.989672499712 -0.5
578 1 1 1.0 -1.523700490982 -0.989672499712 0.5
579 1 1 1.0 -1.523700490982 -0.659781666475 -0.5
580 1 1 1.0 -1.523700490982 -0.659781666475 0.5
581 1 1 1.0 -1.523700490982 -0.329890833237 -0.5
582 1 1 1.0 -1.523700490982 -0.329890833237 0.5
583 1 1 1.0 -1.523700490982 0.0 -0.5
584 1 1 1.0 -1.523700490982 0.0 0.5
585 1 1 1.0 -1.523700490982 0.329890833237 -0.5
586 1 1 1.0 -1.523700490982 0.329890833237 0.5
587 1 1 1.0 -1.523700490982 0.659781666475 -0.5
588 1 1 1.0 -1.523700490982 0.659781666475 0.5
589 1 1 1.0 -1.523700490982 0.989672499712 -0.5
590 1 1 1.0 -1.523700490982 0.989672499712 0.5
591 1 1 1.0 -1.523700490982 1.31956333295 -0.5
592 1 1 1.0 -1.523700490982 1.31956333295 0.5
593 1 1 1.0 -1.523700490982 1.649454166187 -0.5
594 1 1 1.0 -1.523700490982 1.649454166187 0.5
595 1 1 1.0 -1.523700490982 1.979344999424 -0.5
596 1 1 1.0 -1.523700490982 1.979344999424 0.5
597 1 1 1.0 -1.523700490982 2.309235832662 -0.5
598 1 1 1.0 -1.523700490982 2.309235832662 0.5
599 1 1 1.0 -1.523700490982 2.5 -0.329890833237
600 1 1 1.0 -1.523700490982 2.5 0.0
601 1 1 1.0 -1.523700490982 2.5 0.329890833237
602 1 1 1.0 -1.428469210296 -2.5 -0.494836249856
603 1 1 1.0 -1.428469210296 -2.5 -0.164945416619
604 1 1 1.0 -1.428469210296 -2.5 0.164945416619
605 1 1 1.0 -1.428469210296 -2.5 0.494836249856
606 1 1 1.0 -1.428469210296 -2.47418124928 -0.5
607 1 1 1.0 -1.428469210296 -2.47418124928 0.5
608 1 1 1.0 -1.428469210296 -2.144290416043 -0.5
609 1 1 1.0 -1.428469210296 -2.144290416043 0.5
610 1 1 1.0 -1.428469210296 -1.814399582806 -0.5
611 1 1 1.0 -1.428469210296 -1.814399582806 0.5
612 1 1 1.0 -1.428469210296 -1.484508749568 -0.5
613 1 1 1.0 -1.428469210296 -1.484508749568 0.5
614 1 1 1.0 -1.428469210296 -1.154617916331 -0.5
615 1 1 1.0 -1.428469210296 -1.154617916331 0.5
616 1 1 1.0 -1.428469210296 -0.824727083093 -0.5
617 1 1 1.0 -1.428469210296 -0.824727083093 0.5
618 1 1 1.0 -1.428469210296 -0.494836249856 -0.5
619 1 1 1.0 -1.428469210296 -0.494836249856 0.5
620 1 1 1.0 -1.428469210296 -0.164945416619 -0.5
621 1 1 1.0 -1.428469210296 -0.164945416619 0.5
622 1 1 1.0 -1.428469210296 0.164945416619 -0.5
623 1 1 1.0 -1.428469210296 0.164945416619 0.5
624 1 1 1.0 -1.428469210296 0.494836249856 -0.5
625 1 1 1.0 -1.428469210296 0.494836249856 0.5
626 1 1 1.0 -1.428469210296 0.824727083093 -0.5
627 1 1 1.0 -1.428469210296 0.824727083093 0.5
628 1 1 1.0 -1.428469210296 1.154617916331 -0.5
629 1 1 1.0 -1.428469210296 1.154617916331 0.5
630 1 1 1.0 -1.428469210296 1.484508749568 -0.5
631 1 1 1.0 -1.428469210296 1.484508749568 0.5
632 1 1 1.0 -1.428469210296 1.814399582806 -0.5
633 1 1 1.0 -1.428469210296 1.814399582806 0.5
634 1 1 1.0 -1.428469210296 2.144290416043 -0.5
635 1 1 1.0 -1.428469210296 2.144290416043 0.5
636 1 1 1.0 -1.428469210296 2.47418124928 -0.5
637 1 1 1.0 -1.428469210296 2.47418124928 0.5
638 1 1 1.0 -1.428469210296 2.5 -0.494836249856
639 1 1 1.0 -1.428469210296 2.5 -0.164945416619