LAMMPS (10 Sep 2025 - Development - patch_10Sep2025-800-gfd046c3b2f-modified)
units lj
dimension 2
boundary p p p
atom_style ls/dem
comm_modify vel yes cutoff 12.0
atom_modify map yes
newton off

region             box block -10.5 10.5 -10.5 10.5 -0.5 0.5 units box
create_box         1 box
Created orthogonal box = (-10.5 -10.5 -0.5) to (10.5 10.5 0.5)
  1 by 1 by 1 MPI processor grid

mass * 1.0

read_data data_disk add 0 0 shift -5.5 0.001 0.0
Reading data file ...
  orthogonal box = (-10.5 -10.5 -0.5) to (10.5 10.5 0.5)
  1 by 1 by 1 MPI processor grid
  reading atoms ...
  40 atoms
  read_data CPU = 0.003 seconds
read_data data_disk add 40 1 shift +5.5 0.0 0.0
Reading data file ...
  orthogonal box = (-10.5 -10.5 -0.5) to (10.5 10.5 0.5)
  1 by 1 by 1 MPI processor grid
  reading atoms ...
  40 atoms
  read_data CPU = 0.003 seconds
read_data data_disk add 80 2 shift 0.0 +5.5 0.0
Reading data file ...
  orthogonal box = (-10.5 -10.5 -0.5) to (10.5 10.5 0.5)
  1 by 1 by 1 MPI processor grid
  reading atoms ...
  40 atoms
  read_data CPU = 0.004 seconds
read_data data_disk add 120 3 shift 0.0 -5.5 0.0
Reading data file ...
  orthogonal box = (-10.5 -10.5 -0.5) to (10.5 10.5 0.5)
  1 by 1 by 1 MPI processor grid
  reading atoms ...
  40 atoms
  read_data CPU = 0.003 seconds

group           grain1 molecule 1
40 atoms in group grain1
group           grain2 molecule 2
40 atoms in group grain2
group           grain3 molecule 3
40 atoms in group grain3
group           grain4 molecule 4
40 atoms in group grain4

neigh_modify   exclude molecule/intra all

fix             1 all rigid/ls/dem molecule infile infile_disk
  4 rigid bodies with 160 atoms
fix             2 all enforce2d

pair_style ls/dem 1.0
pair_coeff * * 1.0 0.5 0.1 0 0 0 1.0 0 0 0 0

thermo_style custom step  pxx pyy
timestep 0.1

thermo 100
dump mydump all custom 100 atomDump_disk id type mol x y vx vy fx fy
dump_modify mydump sort id

run 50000  # 500000
Generated 0 of 0 mixed pair_coeff terms from geometric mixing rule
Reading rigid body data for 4 bodies from file infile_disk
Reading ls/dem grid data for body 0 from file grid_disk.txt
Reading ls/dem grid data for body 1 from file grid_disk.txt
Reading ls/dem grid data for body 2 from file grid_disk.txt
Reading ls/dem grid data for body 3 from file grid_disk.txt
Neighbor list info ...
  update: every = 1 steps, delay = 0 steps, check = yes
  max neighbors/atom: 2000, page size: 100000
  master list distance cutoff = 1.3
  ghost atom cutoff = 12
  binsize = 0.65, bins = 33 33 2
  1 neighbor lists, perpetual/occasional/extra = 1 0 0
  (1) pair ls/dem, perpetual
      attributes: half, newton off, ghost
      pair build: half/bin/ghost/newtoff
      stencil: full/ghost/bin/2d
      bin: standard
Per MPI rank memory allocation (min/avg/max) = 7.615 | 7.615 | 7.615 Mbytes
   Step          Pxx            Pyy      
         0  -0.99659864     0.49909297   
       100   0.0011337868   0.00022675737
       200   0.0011337868   0.00022675737
       300   0.0011337868   0.00022675737
       400   0.0011337868   0.00022675737
       500   0.0011337868   0.00022675737
       600   0.0011337868   0.00022675737
       700   0.0011292643   0.00022680852
       800   0.0011292643   0.00022680852
       900   0.0011292643   0.00022680852
      1000   0.0011292643   0.00022680852
      1100   0.0011292643   0.00022680852
      1200   0.0011292643   0.00022680852
      1300   0.0011292643   0.00022680852
      1400   0.0011292643   0.00022680852
      1500   0.0011292643   0.00022680852
      1600   0.0011292643   0.00022680852
      1700   0.0011292643   0.00022680852
      1800   0.0011280124   0.00022800713
      1900   0.0011280124   0.00022800713
      2000   0.0011280124   0.00022800713
      2100   0.0011280124   0.00022800713
      2200   0.0011280124   0.00022800713
      2300   0.0011280124   0.00022800713
      2400   0.0011280124   0.00022800713
      2500   0.0011280124   0.00022800713
      2600   0.00076451966  0.00048761142
      2700   0.00076451966  0.00048761142
      2800   0.00076451966  0.00048761142
      2900   0.00076451966  0.00048761142
      3000   0.00076451966  0.00048761142
      3100   0.01682011     0.0011462404 
      3200   0.00080806812  0.00042185451
      3300   0.00080806812  0.00042185451
      3400   0.00080806812  0.00042185451
      3500   0.00080806812  0.00042185451
      3600   0.00080806812  0.00042185451
      3700   0.00080806812  0.00042185451
      3800   0.00080806812  0.00042185451
      3900   0.00080806812  0.00042185451
      4000   0.00080806812  0.00042185451
      4100   0.00080806812  0.00042185451
      4200   0.00080806812  0.00042185451
      4300   0.00080806812  0.00042185451
      4400   0.00080806812  0.00042185451
      4500   0.00087922347  0.00037019   
      4600   0.00055912963  0.00062969021
      4700   0.00055912963  0.00062969021
      4800   0.00055912963  0.00062969021
      4900   0.00051540395  0.00066395927
      5000   0.00051540395  0.00066395927
      5100   0.00051540395  0.00066395927
      5200   0.00051540395  0.00066395927
      5300   0.00051540395  0.00066395927
      5400   0.00051540395  0.00066395927
      5500   0.00051540395  0.00066395927
      5600   0.00051540395  0.00066395927
      5700   0.00051540395  0.00066395927
      5800   0.00081201116  0.00028924426
      5900   0.00081201116  0.00028924426
      6000   0.00081201116  0.00028924426
      6100   0.0012694623   0.0060939629 
      6200   0.00073121979  0.00034301023
      6300   0.00073121979  0.00034301023
      6400   0.00073121979  0.00034301023
      6500   0.00073121979  0.00034301023
      6600   0.00073121979  0.00034301023
      6700   0.00073121979  0.00034301023
      6800   0.0013139399  -0.031916881  
      6900   0.00068241467  0.00037606676
      7000   0.00068241467  0.00037606676
      7100   0.00068241467  0.00037606676
      7200   0.00068241467  0.00037606676
      7300   0.00068241467  0.00037606676
      7400   0.00068241467  0.00037606676
      7500   0.00087914891  0.0022507575 
      7600   0.0007149748   0.00032303525
      7700   0.0061209416   0.00061523681
      7800   0.0006127851   0.00038818055
      7900   0.0006127851   0.00038818055
      8000   0.0006127851   0.00038818055
      8100   0.0006127851   0.00038818055
      8200   0.0006127851   0.00038818055
      8300   0.0006127851   0.00038818055
      8400   0.0006127851   0.00038818055
      8500   0.0006127851   0.00038818055
      8600   0.0006127851   0.00038818055
      8700   0.0006127851   0.00038818055
      8800   0.0006127851   0.00038818055
      8900   0.0006127851   0.00038818055
      9000   0.00067042236  0.0003560431 
      9100   0.0018305486   0.00049846952
      9200   0.00069908118  0.00031671843
      9300   0.00069908118  0.00031671843
      9400   0.00069908118  0.00031671843
      9500   0.00069908118  0.00031671843
      9600   0.00069908118  0.00031671843
      9700   0.00069908118  0.00031671843
      9800   0.00069908118  0.00031671843
      9900   0.00069908118  0.00031671843
     10000   0.00069908118  0.00031671843
     10100   0.00069908118  0.00031671843
     10200   0.00069908118  0.00031671843
     10300   0.00069908118  0.00031671843
     10400   0.00069908118  0.00031671843
     10500   0.00069908118  0.00031671843
     10600   0.00069908118  0.00031671843
     10700   0.00054496348  0.00042655617
     10800   0.00054496348  0.00042655617
     10900   0.00054496348  0.00042655617
     11000   0.0006384387   0.0021610952 
     11100   0.0005523163   0.00043408117
     11200   0.0005523163   0.00043408117
     11300   0.0005523163   0.00043408117
     11400   0.0005523163   0.00043408117
     11500   0.0005523163   0.00043408117
     11600   0.0005523163   0.00043408117
     11700   0.0005523163   0.00043408117
     11800   0.00074390566  0.00026606797
     11900   0.00074041673  0.00025407719
     12000   0.00074041673  0.00025407719
     12100   0.00074041673  0.00025407719
     12200   0.00074041673  0.00025407719
     12300   0.00074041673  0.00025407719
     12400   0.00074041673  0.00025407719
     12500   0.00074041673  0.00025407719
     12600   0.00074041673  0.00025407719
     12700   0.00074041673  0.00025407719
     12800   0.00074041673  0.00025407719
     12900   0.00074041673  0.00025407719
     13000   0.0007100181   0.00027312939
     13100   0.0007100181   0.00027312939
     13200   0.0007100181   0.00027312939
     13300   0.0007100181   0.00027312939
     13400   0.0054487516   0.0022055669 
     13500   0.00059776947  0.00036627326
     13600   0.00059776947  0.00036627326
     13700   0.00075011581  0.00017891034
     13800   0.00075011581  0.00017891034
     13900   0.00075011581  0.00017891034
     14000   0.00075011581  0.00017891034
     14100   0.00075011581  0.00017891034
     14200   0.00075011581  0.00017891034
     14300   0.00075011581  0.00017891034
     14400   0.00075011581  0.00017891034
     14500   0.00075011581  0.00017891034
     14600   0.0013173658   0.0013273209 
     14700   0.0006496433   0.00025474042
     14800   0.0006496433   0.00025474042
     14900   0.0006496433   0.00025474042
     15000   0.0006496433   0.00025474042
     15100   0.0006496433   0.00025474042
     15200   0.0006496433   0.00025474042
     15300   0.0006496433   0.00025474042
     15400   0.0006496433   0.00025474042
     15500   0.0006496433   0.00025474042
     15600   0.0006496433   0.00025474042
     15700   0.0006496433   0.00025474042
     15800   0.0006496433   0.00025474042
     15900   0.0006496433   0.00025474042
     16000   0.0006496433   0.00025474042
     16100   0.0006496433   0.00025474042
     16200   0.0006496433   0.00025474042
     16300   0.0006496433   0.00025474042
     16400   0.0006496433   0.00025474042
     16500   0.0006496433   0.00025474042
     16600   0.00060109096  0.00029343723
     16700   0.00060109096  0.00029343723
     16800   0.00070554462  0.00020013178
     16900   0.00070554462  0.00020013178
     17000   0.00070554462  0.00020013178
     17100   0.00070554462  0.00020013178
     17200   0.00070554462  0.00020013178
     17300   0.00070554462  0.00020013178
     17400   0.00070554462  0.00020013178
     17500   0.00070554462  0.00020013178
     17600   0.00070554462  0.00020013178
     17700   0.00070554462  0.00020013178
     17800   0.00070554462  0.00020013178
     17900   0.00070554462  0.00020013178
     18000   0.00070554462  0.00020013178
     18100   0.00070554462  0.00020013178
     18200   0.00070554462  0.00020013178
     18300   0.00070554462  0.00020013178
     18400   0.00070554462  0.00020013178
     18500   0.00070554462  0.00020013178
     18600   0.00070554462  0.00020013178
     18700   0.00070554462  0.00020013178
     18800   0.00073733614  0.00015697799
     18900   0.00073733614  0.00015697799
     19000   0.00073733614  0.00015697799
     19100   0.00073733614  0.00015697799
     19200   0.00073733614  0.00015697799
     19300   0.00073733614  0.00015697799
     19400   0.00073733614  0.00015697799
     19500   0.00073733614  0.00015697799
     19600   0.00073733614  0.00015697799
     19700   0.00073733614  0.00015697799
     19800   0.0065348196   0.0021734754 
     19900   0.00053849564 -0.0017609107 
     20000   0.00053434618  0.00030148598
     20100   0.00053434618  0.00030148598
     20200   0.00053434618  0.00030148598
     20300   0.00053434618  0.00030148598
     20400   0.00053434618  0.00030148598
     20500   0.00053434618  0.00030148598
     20600   0.00053434618  0.00030148598
     20700   0.00053434618  0.00030148598
     20800   0.00053434618  0.00030148598
     20900   0.00053434618  0.00030148598
     21000   0.00053434618  0.00030148598
     21100   0.00053434618  0.00030148598
     21200   0.00053434618  0.00030148598
     21300   0.00053434618  0.00030148598
     21400   0.00053434618  0.00030148598
     21500   0.00053434618  0.00030148598
     21600   0.00053434618  0.00030148598
     21700   0.00053434618  0.00030148598
     21800   0.00053434618  0.00030148598
     21900   0.00072550301  0.00031450565
     22000   0.00057755033  0.00023027044
     22100   0.00057755033  0.00023027044
     22200   0.00057755033  0.00023027044
     22300   0.00057755033  0.00023027044
     22400   0.00057755033  0.00023027044
     22500   0.00057755033  0.00023027044
     22600   0.00057755033  0.00023027044
     22700   0.00057755033  0.00023027044
     22800   0.00057755033  0.00023027044
     22900   0.00057755033  0.00023027044
     23000   0.00057755033  0.00023027044
     23100   0.00057755033  0.00023027044
     23200   0.00057755033  0.00023027044
     23300   0.00057755033  0.00023027044
     23400   0.00053802537  0.00026042993
     23500   0.00053802537  0.00026042993
     23600   0.00053802537  0.00026042993
     23700   0.00053802537  0.00026042993
     23800   0.00053802537  0.00026042993
     23900   0.00053802537  0.00026042993
     24000   0.00053802537  0.00026042993
     24100   0.00053802537  0.00026042993
     24200   0.00066077928  0.00011277761
     24300   0.00066077928  0.00011277761
     24400   0.00066077928  0.00011277761
     24500   0.00066077928  0.00011277761
     24600   0.0018378962   0.004596969  
     24700   0.00059141664  0.00017009111
     24800   0.00059141664  0.00017009111
     24900   0.00059141664  0.00017009111
     25000   0.00059141664  0.00017009111
     25100   0.00059141664  0.00017009111
     25200   0.00057362157  0.00018632223
     25300   0.00057362157  0.00018632223
     25400   0.00057362157  0.00018632223
     25500   0.00057362157  0.00018632223
     25600   0.00057362157  0.00018632223
     25700   0.00057362157  0.00018632223
     25800   0.00057362157  0.00018632223
     25900   0.00057362157  0.00018632223
     26000   0.00057362157  0.00018632223
     26100   0.00057362157  0.00018632223
     26200   0.00057362157  0.00018632223
     26300   0.00057362157  0.00018632223
     26400   0.00057362157  0.00018632223
     26500   0.00057362157  0.00018632223
     26600   0.00057362157  0.00018632223
     26700   0.00057362157  0.00018632223
     26800   0.00057362157  0.00018632223
     26900   0.00057362157  0.00018632223
     27000   0.00057362157  0.00018632223
     27100   0.00057362157  0.00018632223
     27200   0.00057362157  0.00018632223
     27300   0.00057362157  0.00018632223
     27400   0.00057362157  0.00018632223
     27500   0.00057362157  0.00018632223
     27600   0.00057381101  0.00018620322
     27700   0.00054101136  0.00020877658
     27800   0.00054101136  0.00020877658
     27900   0.00054101136  0.00020877658
     28000   0.00054101136  0.00020877658
     28100   0.00054101136  0.00020877658
     28200   0.00054101136  0.00020877658
     28300   0.00054101136  0.00020877658
     28400   0.00054101136  0.00020877658
     28500   0.00054101136  0.00020877658
     28600   0.00054101136  0.00020877658
     28700   0.00054101136  0.00020877658
     28800   0.00054101136  0.00020877658
     28900   0.00054101136  0.00020877658
     29000   0.00054101136  0.00020877658
     29100   0.00051387682  0.00021346908
     29200   0.00051387682  0.00021346908
     29300   0.00051387682  0.00021346908
     29400   0.00051387682  0.00021346908
     29500   0.0021915774  -0.0028701124 
     29600   0.00053314671  0.00018890992
     29700   0.00053314671  0.00018890992
     29800   0.00053314671  0.00018890992
     29900   0.0005780554   0.00014058544
     30000   0.0005780554   0.00014058544
     30100   0.0005780554   0.00014058544
     30200   0.0005780554   0.00014058544
     30300   0.0005780554   0.00014058544
     30400   0.0005780554   0.00014058544
     30500   0.0005780554   0.00014058544
     30600   0.0005780554   0.00014058544
     30700   0.0005780554   0.00014058544
     30800   0.0005780554   0.00014058544
     30900   0.0005780554   0.00014058544
     31000   0.0005780554   0.00014058544
     31100   0.0005780554   0.00014058544
     31200   0.0005780554   0.00014058544
     31300   0.00060623452  0.00010342909
     31400   0.00060623452  0.00010342909
     31500   0.00060623452  0.00010342909
     31600   0.00060623452  0.00010342909
     31700   0.00060623452  0.00010342909
     31800   0.00060623452  0.00010342909
     31900   0.00060623452  0.00010342909
     32000   0.00060623452  0.00010342909
     32100   0.00060623452  0.00010342909
     32200   0.00060623452  0.00010342909
     32300   0.00061300824  9.6819778e-05
     32400   0.00061300824  9.6819778e-05
     32500   0.00061300824  9.6819778e-05
     32600   0.00061300824  9.6819778e-05
     32700   0.00061300824  9.6819778e-05
     32800   0.00061300824  9.6819778e-05
     32900   0.00061300824  9.6819778e-05
     33000   0.00061300824  9.6819778e-05
     33100   0.00061300824  9.6819778e-05
     33200   0.00061300824  9.6819778e-05
     33300   0.00061300824  9.6819778e-05
     33400   0.00060350441  0.00010046194
     33500   0.0020447185   9.268125e-05 
     33600   0.00060477591  9.973461e-05 
     33700   0.00060477591  9.973461e-05 
     33800   0.00060477591  9.973461e-05 
     33900   0.00060477591  9.973461e-05 
     34000   0.00060477591  9.973461e-05 
     34100   0.00060477591  9.973461e-05 
     34200   0.00060477591  9.973461e-05 
     34300   0.00060477591  9.973461e-05 
     34400   0.00060477591  9.973461e-05 
     34500   0.00060477591  9.973461e-05 
     34600   0.00060477591  9.973461e-05 
     34700   0.00060477591  9.973461e-05 
     34800   0.00060477591  9.973461e-05 
     34900   0.00060477591  9.973461e-05 
     35000   0.00060477591  9.973461e-05 
     35100   0.00060477591  9.973461e-05 
     35200   0.00060477591  9.973461e-05 
     35300   0.00060477591  9.973461e-05 
     35400   0.00060477591  9.973461e-05 
     35500   0.00060477591  9.973461e-05 
     35600   0.00060477591  9.973461e-05 
     35700   0.00060477591  9.973461e-05 
     35800   0.00060477591  9.973461e-05 
     35900   0.00060477591  9.973461e-05 
     36000   0.00060477591  9.973461e-05 
     36100   0.00060477591  9.973461e-05 
     36200   0.00060477591  9.973461e-05 
     36300   0.00060477591  9.973461e-05 
     36400   0.00060477591  9.973461e-05 
     36500   0.00060477591  9.973461e-05 
     36600   0.00060477591  9.973461e-05 
     36700   0.00060477591  9.973461e-05 
     36800   0.00060477591  9.973461e-05 
     36900   0.00060477591  9.973461e-05 
     37000   0.00060477591  9.973461e-05 
     37100   0.00060477591  9.973461e-05 
     37200   0.00060477591  9.973461e-05 
     37300   0.00059746502  0.0001046611 
     37400   0.00059746502  0.0001046611 
     37500   0.00059746502  0.0001046611 
     37600   0.00059746502  0.0001046611 
     37700   0.00059746502  0.0001046611 
     37800   0.00059746502  0.0001046611 
     37900   0.00059746502  0.0001046611 
     38000   0.00059746502  0.0001046611 
     38100   0.00059746502  0.0001046611 
     38200   0.00059746502  0.0001046611 
     38300   0.00059746502  0.0001046611 
     38400   0.00059746502  0.0001046611 
     38500   0.00059746502  0.0001046611 
     38600   0.00059746502  0.0001046611 
     38700   0.00059746502  0.0001046611 
     38800   0.00059746502  0.0001046611 
     38900   0.00059746502  0.0001046611 
     39000   0.00059746502  0.0001046611 
     39100   0.0006274921   6.6765124e-05
     39200   0.0006274921   6.6765124e-05
     39300   0.0006274921   6.6765124e-05
     39400   0.0006274921   6.6765124e-05
     39500   0.0006274921   6.6765124e-05
     39600   0.0006274921   6.6765124e-05
     39700   0.0006274921   6.6765124e-05
     39800   0.0006274921   6.6765124e-05
     39900   0.0006274921   6.6765124e-05
     40000   0.0006274921   6.6765124e-05
     40100   0.0006274921   6.6765124e-05
     40200   0.00061911428  7.6611379e-05
     40300   0.00061911428  7.6611379e-05
     40400   0.00061911428  7.6611379e-05
     40500   0.00061911428  7.6611379e-05
     40600   0.00061911428  7.6611379e-05
     40700   0.00061911428  7.6611379e-05
     40800   0.00061911428  7.6611379e-05
     40900   0.00061911428  7.6611379e-05
     41000   0.00061911428  7.6611379e-05
     41100   0.00061911428  7.6611379e-05
     41200   0.00061911428  7.6611379e-05
     41300   0.00061911428  7.6611379e-05
     41400   0.00061911428  7.6611379e-05
     41500   0.00061911428  7.6611379e-05
     41600   0.00054936714  0.00013287257
     41700   0.00054936714  0.00013287257
     41800   0.00054936714  0.00013287257
     41900   0.0035403384  -0.0073954176 
     42000   0.00052474837  0.00015085012
     42100   0.00052474837  0.00015085012
     42200   0.00052474837  0.00015085012
     42300   0.00052474837  0.00015085012
     42400   0.00052474837  0.00015085012
     42500   0.00052474837  0.00015085012
     42600   0.00051534266  0.00016063159
     42700   0.00051534266  0.00016063159
     42800   0.0023636037   0.0065404543 
     42900   0.00055838196  0.00011060943
     43000   0.00055838196  0.00011060943
     43100   0.00055838196  0.00011060943
     43200   0.00055838196  0.00011060943
     43300   0.00055838196  0.00011060943
     43400   0.00055838196  0.00011060943
     43500   0.00055838196  0.00011060943
     43600   0.00055838196  0.00011060943
     43700   0.00055838196  0.00011060943
     43800   0.00055838196  0.00011060943
     43900   0.00055838196  0.00011060943
     44000   0.00055838196  0.00011060943
     44100   0.00055838196  0.00011060943
     44200   0.00055838196  0.00011060943
     44300   0.00055838196  0.00011060943
     44400   0.00055838196  0.00011060943
     44500   0.00055838196  0.00011060943
     44600   0.00055838196  0.00011060943
     44700   0.00055426209  0.00011437728
     44800   0.00055426209  0.00011437728
     44900   0.00055426209  0.00011437728
     45000   0.00055426209  0.00011437728
     45100   0.0005546566   0.00010782868
     45200   0.0005546566   0.00010782868
     45300   0.0005546566   0.00010782868
     45400   0.0005546566   0.00010782868
     45500   0.0005546566   0.00010782868
     45600   0.0005546566   0.00010782868
     45700   0.0005546566   0.00010782868
     45800   0.0005546566   0.00010782868
     45900   0.0005546566   0.00010782868
     46000   0.0005546566   0.00010782868
     46100   0.0005546566   0.00010782868
     46200   0.0005546566   0.00010782868
     46300   0.0005546566   0.00010782868
     46400   0.0005546566   0.00010782868
     46500   0.0005546566   0.00010782868
     46600   0.0005546566   0.00010782868
     46700   0.0005546566   0.00010782868
     46800   0.0005546566   0.00010782868
     46900   0.0005546566   0.00010782868
     47000   0.0005546566   0.00010782868
     47100  -0.012449908    0.00032505621
     47200   0.0005272085   0.00012373555
     47300   0.0005272085   0.00012373555
     47400   0.0005272085   0.00012373555
     47500   0.0005272085   0.00012373555
     47600   0.0005272085   0.00012373555
     47700   0.0005272085   0.00012373555
     47800   0.0005272085   0.00012373555
     47900   0.0005272085   0.00012373555
     48000   0.0005272085   0.00012373555
     48100   0.0005272085   0.00012373555
     48200   0.0005272085   0.00012373555
     48300   0.0005272085   0.00012373555
     48400   0.0005272085   0.00012373555
     48500   0.0005272085   0.00012373555
     48600   0.0005272085   0.00012373555
     48700   0.0030201406   0.0017803425 
     48800   0.00054252929  0.00010636827
     48900   0.00054252929  0.00010636827
     49000   0.00054252929  0.00010636827
     49100   0.00053829954  0.00010511546
     49200   0.00053829954  0.00010511546
     49300   0.00053829954  0.00010511546
     49400   0.00053829954  0.00010511546
     49500   0.00053829954  0.00010511546
     49600   0.00053829954  0.00010511546
     49700   0.00053829954  0.00010511546
     49800   0.00053829954  0.00010511546
     49900   0.00053829954  0.00010511546
     50000   0.00053829954  0.00010511546
Loop time of 2.5644 on 1 procs for 50000 steps with 160 atoms

Performance: 168460456.222 tau/day, 19497.738 timesteps/s, 3.120 Matom-step/s
86.6% CPU use with 1 MPI tasks x no OpenMP threads

MPI task timing breakdown:
Section |  min time  |  avg time  |  max time  |%varavg| %total
---------------------------------------------------------------
Pair    | 0.51643    | 0.51643    | 0.51643    |   0.0 | 20.14
Neigh   | 0.39222    | 0.39222    | 0.39222    |   0.0 | 15.29
Comm    | 0.7998     | 0.7998     | 0.7998     |   0.0 | 31.19
Output  | 0.48271    | 0.48271    | 0.48271    |   0.0 | 18.82
Modify  | 0.33404    | 0.33404    | 0.33404    |   0.0 | 13.03
Other   |            | 0.0392     |            |       |  1.53

Nlocal:            160 ave         160 max         160 min
Histogram: 1 0 0 0 0 0 0 0 0 0
Nghost:            600 ave         600 max         600 min
Histogram: 1 0 0 0 0 0 0 0 0 0
Neighs:             12 ave          12 max          12 min
Histogram: 1 0 0 0 0 0 0 0 0 0

Total # of neighbors = 12
Ave neighs/atom = 0.075
Neighbor list builds = 2593
Dangerous builds = 0

Total wall time: 0:00:02
