# Generated using make_ls_sphere.py (uniform sphere sampling)

200 atoms
 1 atom types

-1.0 1.0 xlo xhi
-1.0 1.0 ylo yhi
-1.0 1.0 zlo zhi

Atoms

1 1 1 0.0 0.0 1.0
2 1 1 -0.10427839014699135 0.09552754739131732 0.9899497487437185
3 1 1 0.017440714435575353 -0.1987279454526835 0.9798994974874372
4 1 1 0.14827998278599175 0.19340498000270054 0.9698492462311558
5 1 1 -0.27639749715137646 -0.04889082545504637 0.9597989949748744
6 1 1 0.26410662629437814 -0.16800301709301557 0.949748743718593
7 1 1 -0.08878571344441363 0.3302784285299685 0.9396984924623115
8 1 1 -0.16982040836871523 -0.3269788625034002 0.9296482412060302
9 1 1 0.3690224306970491 0.1347663998288278 0.9195979899497487
10 1 1 -0.38415751385672703 0.1585746372690745 0.9095477386934674
11 1 1 0.1851893064302357 -0.3957387912222882 0.8994974874371859
12 1 1 0.1367840597465947 0.43608913658722376 0.8894472361809045
13 1 1 -0.41191772771980123 -0.2387147429373348 0.8793969849246231
14 1 1 0.4826757529419432 -0.10611491027237185 0.8693467336683417
15 1 1 -0.2941659438019304 0.41842078440414404 0.8592964824120604
16 1 1 -0.06785325951647893 -0.523618920629015 0.8492462311557789
17 1 1 0.415838387186706 0.3504690329579511 0.8391959798994975
18 1 1 -0.5585551384350451 0.023098008583379643 0.8291457286432161
19 1 1 0.40662510685611203 -0.4046462917147828 0.8190954773869347
20 1 1 -0.027148855722819012 0.5871190353822141 0.8090452261306533
21 1 1 -0.3852825639659384 -0.4616972774766325 0.7989949748743719
22 1 1 0.6089766496408352 0.0819369469006404 0.7889447236180904
23 1 1 -0.5148054148348975 0.358188198829733 0.778894472361809
24 1 1 0.14034431724186427 -0.6238445610010153 0.7688442211055276
25 1 1 0.3238291789806651 0.5651250960284186 0.7587939698492463
26 1 1 -0.6315015493028845 -0.2014662182492033 0.7487437185929648
27 1 1 0.6118889092141776 -0.2827081960163024 0.7386934673366834
28 1 1 -0.2644107137752213 0.6317958832573117 0.728643216080402
29 1 1 -0.23537017678505057 -0.6543890515476662 0.7185929648241206
30 1 1 0.6246497952027061 0.32829842583104185 0.7085427135678393
31 1 1 -0.6919805724353021 0.18240385814463606 0.6984924623115578
32 1 1 0.39226485122986865 -0.6100619710545243 0.6884422110552764
33 1 1 0.1244407037794219 0.7240848431799696 0.6783919597989949
34 1 1 -0.5881085232900726 -0.4554642965763363 0.6683417085427136
35 1 1 0.7501929697539957 -0.0621519540753613 0.6582914572864322
36 1 1 -0.5170748176524634 0.5589427267209471 0.6482412060301508
37 1 1 0.003755678805778331 -0.7698689499658529 0.6381909547738693
38 1 1 0.5227936958057621 0.5763037464828613 0.6281407035175879
39 1 1 -0.7827524317755588 -0.07254531944145523 0.6180904522613065
40 1 1 0.6323935093506874 -0.4799641270896092 0.6080402010050252
41 1 1 -0.14345598612058125 0.7885609678684753 0.5979899497487438
42 1 1 -0.4308272002387464 -0.6846275151285082 0.5879396984924623
43 1 1 0.7870916895041937 0.21570920028245258 0.5778894472361809
44 1 1 -0.732335943615707 0.3758227151163077 0.5678391959798995
45 1 1 0.28851598993071054 -0.7782223439984326 0.5577889447236181
46 1 1 0.31545253441491083 0.7749012983663819 0.5477386934673367
47 1 1 -0.7619116572875968 -0.36108415307503644 0.5376884422110553
48 1 1 0.8117636137106091 -0.2502753981146897 0.5276381909547738
49 1 1 -0.4326256639339924 0.7381989972794206 0.5175879396984925
50 1 1 -0.18090117547009063 -0.842425224886029 0.507537688442211
51 1 1 0.7072033259830923 0.5023641165137372 0.4974874371859297
52 1 1 -0.8664550255903439 0.10798462113755854 0.48743718592964824
53 1 1 0.569542109149118 -0.6691214392837378 0.4773869346733668
54 1 1 0.0322187036867989 0.88349215020025 0.46733668341708545
55 1 1 -0.6242255030192377 -0.6334284808421722 0.457286432160804
56 1 1 0.8932490292363906 0.04567242338855034 0.44723618090452266
57 1 1 -0.6933253165130765 0.5728599029428098 0.4371859296482412
58 1 1 0.12494073624040766 -0.8955137769305088 0.42713567839195976
59 1 1 0.5154374343379938 0.748574644076404 0.4170854271356784
60 1 1 -0.8901518793131521 -0.20482186736794428 0.40703517587939697
61 1 1 0.7985647518815827 -0.4524348645653709 0.39698492462311563
62 1 1 -0.2845427698912096 0.8771071602997774 0.3869346733668342
63 1 1 -0.384387908698966 -0.8427360607072835 0.37688442211055273
64 1 1 0.8564020119359346 0.36332944423173646 0.3668341708542714
65 1 1 -0.8805864902961478 0.3118856646660879 0.35678391959798994
66 1 1 0.4404146520011403 -0.8281368833357301 0.3467336683417085
67 1 1 0.23556455993848457 0.9116762664239255 0.33668341708542715
68 1 1 -0.7924890309413699 -0.5150455424698269 0.3266331658291457
69 1 1 0.9356321207478169 -0.15610186682257607 0.31658291457286436
70 1 1 -0.5864911181875114 0.7497105405469533 0.3065326633165829
71 1 1 -0.07420884774946991 -0.9521508421750209 0.29648241206030146
72 1 1 0.700125639051645 0.6540494681594547 0.2864321608040201
73 1 1 -0.9610021452194071 -0.009376404345122462 0.27638190954773867
74 1 1 0.7170546994432353 -0.6441273211082524 0.26633165829145733
75 1 1 -0.09389636245038212 0.9620308277423635 0.2562814070351759
76 1 1 -0.5821733226789437 -0.7748835011050037 0.24623115577889443
77 1 1 0.9551581975636054 0.178581628299008 0.2361809045226131
78 1 1 -0.8269612781404972 0.514781479959776 0.22613065326633164
79 1 1 0.26265858953813037 -0.9403827546318654 0.2160804020100503
80 1 1 0.44252451815108845 0.872767797192086 0.20603015075376885
81 1 1 -0.9177801227111725 -0.34535709830437833 0.1959798994974874
82 1 1 0.911842290645024 -0.3660243200883474 0.18592964824120606
83 1 1 -0.42591809805331965 0.8875022318095105 0.1758793969849246
84 1 1 -0.28594572976936883 -0.9437879709201488 0.16582914572864327
85 1 1 0.8497757597940306 0.5036011259950146 0.15577889447236182
86 1 1 -0.9682759124502215 0.2029899502810208 0.14572864321608037
87 1 1 0.5776916196837794 -0.80489984874041 0.13567839195979903
88 1 1 0.11788759950737424 0.985048264881354 0.12562814070351758
89 1 1 -0.7532431184934015 -0.6475079581852705 0.11557788944723613
90 1 1 0.9939207674241055 -0.03139149026274468 0.10552763819095479
91 1 1 -0.7124081707791947 0.6952400066100687 0.09547738693467334
92 1 1 0.05573079589057738 -0.9947845409329541 0.085427135678392
93 1 1 0.6313864702597708 0.7717962493221403 0.07537688442211055
94 1 1 -0.9876071411560382 -0.14270446992583843 0.0653266331658291
95 1 1 0.8251280041639454 -0.5622350917075648 0.055276381909547756
96 1 1 -0.22875515924871986 0.9724328636071626 0.045226130653266305
97 1 1 -0.48838963465764446 -0.8719164078440211 0.035175879396984966
98 1 1 0.9493822976039741 0.31311652113348204 0.025125628140703515
99 1 1 -0.9117363756507583 0.4104991039296092 0.015075376884422065
100 1 1 0.3950377727301146 -0.9186511341248383 0.005025125628140725
101 1 1 0.3292513656371047 0.9442289374608909 -0.005025125628140614
102 1 1 -0.8805082391970463 -0.47379106546864075 -0.015075376884422065
103 1 1 0.9691047610376174 -0.24536638919126127 -0.025125628140703515
104 1 1 -0.5486786331634489 0.8352930114747389 -0.035175879396984966
105 1 1 -0.15958917602580347 -0.9861469931006932 -0.045226130653266416
106 1 1 0.7834120494332514 0.6190396452617414 -0.055276381909547645
107 1 1 -0.9952133909333963 0.07268244290107642 -0.0653266331658291
108 1 1 0.6842566994691089 -0.725335160133891 -0.07537688442211055
109 1 1 -0.01458087003465913 0.9962377239990553 -0.085427135678392
110 1 1 -0.6615907477396424 -0.7437618913936282 -0.09547738693467345
111 1 1 0.9892304319421433 0.10142519458891576 -0.10552763819095468
112 1 1 -0.7970424028473694 0.5927606258298658 -0.11557788944723613
113 1 1 0.18707996045379144 -0.9742785323817748 -0.12562814070351758
114 1 1 0.5194743030160943 0.8436455549940071 -0.13567839195979903
115 1 1 -0.9515447790038586 -0.27078717860507745 -0.14572864321608048
116 1 1 0.8831832775920274 -0.44240279635053475 -0.1557788944723617
117 1 1 -0.35180890945281273 0.9212660775566042 -0.16582914572864316
118 1 1 -0.3622520314968491 -0.915335951109004 -0.1758793969849246
119 1 1 0.8837511743868903 0.4294345441096856 -0.18592964824120606
120 1 1 -0.9398555844240047 0.27975589255629163 -0.1959798994974875
121 1 1 0.5029878289082366 -0.8393776390579856 -0.20603015075376874
122 1 1 0.19566898777539316 0.9565682971383319 -0.2160804020100502
123 1 1 -0.7885881692970287 -0.5718335657322879 -0.22613065326633164
124 1 1 0.965376082125182 -0.11075920006714711 -0.2361809045226131
125 1 1 -0.6353839238063133 0.7318862529739734 -0.24623115577889454
126 1 1 -0.025800093335190025 -0.9662578308049907 -0.256281407035176
127 1 1 0.6698312279506866 0.6931043022906421 -0.2663316582914572
128 1 1 -0.9592696106779517 -0.058436753028523816 -0.27638190954773867
129 1 1 0.7445186873264855 -0.6030327864045095 -0.2864321608040201
130 1 1 -0.14118940840961416 0.9445441918152103 -0.29648241206030157
131 1 1 -0.5321449755712607 -0.7892144520308181 -0.306532663316583
132 1 1 0.9222898262450621 0.22171318094647371 -0.31658291457286425
133 1 1 -0.8268465533190916 0.45785975171963794 -0.3266331658291457
134 1 1 0.2992880608751362 -0.8927882914091565 -0.33668341708542715
135 1 1 0.3809001485179598 0.8571410852930211 -0.3467336683417086
136 1 1 -0.8563922160472178 -0.3732259463247839 -0.35678391959799005
137 1 1 0.8798981552286391 -0.3020131247460894 -0.3668341708542713
138 1 1 -0.44287758276652966 0.8135217139408574 -0.37688442211055273
139 1 1 -0.22196215950683232 -0.8949940548928607 -0.3869346733668342
140 1 1 0.7646603578555468 0.5076391501314751 -0.39698492462311563
141 1 1 -0.9023827069619783 0.1415196656751305 -0.4070351758793971
142 1 1 0.5669584351059733 -0.7103505327183437 -0.4170854271356783
143 1 1 0.06145929427006669 0.9020963736721624 -0.42713567839195976
144 1 1 -0.6511882135186352 -0.6203405302670553 -0.4371859296482412
145 1 1 0.894245622464512 0.01745179626842173 -0.44723618090452266
146 1 1 -0.6673530065203199 0.5878172195929039 -0.4572864321608041
147 1 1 0.09446063127039063 -0.8790185512676727 -0.46733668341708534
148 1 1 0.5209230028355339 0.7076305107328097 -0.4773869346733668
149 1 1 -0.8566792841748497 -0.1688359968687143 -0.48743718592964824
150 1 1 0.7408787464951191 -0.451226032974602 -0.4974874371859297
151 1 1 -0.23987582887203412 0.8275657566222103 -0.5075376884422111
152 1 1 -0.37947484839132756 -0.7668778025976818 -0.5175879396984924
153 1 1 0.7920868177942719 0.3069143406921831 -0.5276381909547738
154 1 1 -0.7854848010655645 0.3064388461139336 -0.5376884422110553
155 1 1 0.3693288192887982 -0.750718686940346 -0.5477386934673367
156 1 1 0.23290088969868128 0.7966358444871001 -0.5577889447236182
157 1 1 -0.7040008097166282 -0.4265460202923402 -0.5678391959798994
158 1 1 0.8003472509435602 -0.1596498189167385 -0.5778894472361809
159 1 1 -0.47804809599136405 0.6525311707923417 -0.5879396984924623
160 1 1 -0.08747295080068784 -0.7967160741931314 -0.5979899497487438
161 1 1 0.5969611301319651 0.5233779925382187 -0.6080402010050252
162 1 1 -0.7859199170426379 0.017148668143822685 -0.6180904522613064
163 1 1 0.5621442552662468 -0.5379898631531888 -0.6281407035175879
164 1 1 -0.05056080027208125 0.7682160573176426 -0.6381909547738693
165 1 1 -0.4763585002516316 -0.5940251830037105 -0.6482412060301508
166 1 1 0.7439399189390309 0.11491629245974462 -0.6582914572864322
167 1 1 -0.618772273061543 0.4128440803892646 -0.6683417085427135
168 1 1 0.17520818812593172 -0.7135029360091707 -0.6783919597989949
169 1 1 0.3482534588286604 0.6362128971116483 -0.6884422110552764
170 1 1 -0.6773898765911575 -0.2307622915160827 -0.6984924623115578
171 1 1 0.646252142716549 -0.2834173443602067 -0.7085427135678393
172 1 1 -0.2809449321314224 0.6361557167981365 -0.7185929648241205
173 1 1 -0.21918469270223562 -0.6488737428383391 -0.728643216080402
174 1 1 0.5904221878187704 0.3251670362220086 -0.7386934673366834
175 1 1 -0.6441399909801762 0.15641776078066597 -0.7487437185929648
176 1 1 0.36288682882321227 -0.540874163541811 -0.7587939698492463
177 1 1 0.0959882501771466 0.6321904930482297 -0.7688442211055277
178 1 1 -0.4882561231453014 -0.3936106694886961 -0.778894472361809
179 1 1 0.6132395201871307 -0.038775171899457936 -0.7889447236180904
180 1 1 -0.41689125267339466 0.4333690270080563 -0.7989949748743719
181 1 1 0.014334584407810514 -0.5875715631010877 -0.8090452261306533
182 1 1 0.37706811507358173 0.43232191191185937 -0.8190954773869348
183 1 1 -0.5555343708427681 -0.06244136037147196 -0.829145728643216
184 1 1 0.43952483589514435 -0.3202624329387835 -0.8391959798994975
185 1 1 -0.10462069491210023 0.5175281142738187 -0.8492462311557789
186 1 1 -0.2639174362381551 -0.4381291386837207 -0.8592964824120604
187 1 1 0.4739879350840569 0.1398988708136598 -0.8693467336683418
188 1 1 -0.4277307131782608 0.2090631003058618 -0.879396984924623
189 1 1 0.16720536608845588 -0.4253539462628455 -0.8894472361809045
190 1 1 0.15681227515373192 0.4078163562871159 -0.8994974874371859
191 1 1 -0.37201456702548524 -0.1852783661371201 -0.9095477386934674
192 1 1 0.37760967989835603 -0.10839956885266136 -0.9195979899497488
193 1 1 -0.19246269866914895 0.3141850684604909 -0.9296482412060301
194 1 1 -0.06526645545977638 -0.33571868142207417 -0.9396984924623115
195 1 1 0.25159765343698054 0.18621478080420842 -0.949748743718593
196 1 1 -0.2791577580531083 0.029271750271946635 -0.9597989949748744
197 1 1 0.1615535323066302 -0.18246340943901435 -0.9698492462311559
198 1 1 0.0033788520802310973 0.19946317500352828 -0.9798994974874371
199 1 1 -0.09728003856802693 -0.10264545317963036 -0.9899497487437185
200 1 1 1.221596080776298e-16 8.638748806306516e-18 -1.0
