# Generated using make_ls_sphere.py (uniform sphere sampling)

42 atoms
 1 atom types

-5.0 5.0 xlo xhi
-5.0 5.0 ylo yhi
-5.0 5.0 zlo zhi

Atoms

1 1 1 1.0 -2.628655560596e+00 4.253254041760e+00 0.000000000000e+00
2 1 1 1.0 2.628655560596e+00 4.253254041760e+00 0.000000000000e+00
3 1 1 1.0 -2.628655560596e+00 -4.253254041760e+00 0.000000000000e+00
4 1 1 1.0 2.628655560596e+00 -4.253254041760e+00 0.000000000000e+00
5 1 1 1.0 0.000000000000e+00 -2.628655560596e+00 4.253254041760e+00
6 1 1 1.0 0.000000000000e+00 2.628655560596e+00 4.253254041760e+00
7 1 1 1.0 0.000000000000e+00 -2.628655560596e+00 -4.253254041760e+00
8 1 1 1.0 0.000000000000e+00 2.628655560596e+00 -4.253254041760e+00
9 1 1 1.0 4.253254041760e+00 0.000000000000e+00 -2.628655560596e+00
10 1 1 1.0 4.253254041760e+00 0.000000000000e+00 2.628655560596e+00
11 1 1 1.0 -4.253254041760e+00 0.000000000000e+00 -2.628655560596e+00
12 1 1 1.0 -4.253254041760e+00 0.000000000000e+00 2.628655560596e+00
13 1 1 1.0 -4.045084971875e+00 2.500000000000e+00 1.545084971875e+00
14 1 1 1.0 -2.500000000000e+00 1.545084971875e+00 4.045084971875e+00
15 1 1 1.0 -1.545084971875e+00 4.045084971875e+00 2.500000000000e+00
16 1 1 1.0 1.545084971875e+00 4.045084971875e+00 2.500000000000e+00
17 1 1 1.0 0.000000000000e+00 5.000000000000e+00 0.000000000000e+00
18 1 1 1.0 1.545084971875e+00 4.045084971875e+00 -2.500000000000e+00
19 1 1 1.0 -1.545084971875e+00 4.045084971875e+00 -2.500000000000e+00
20 1 1 1.0 -2.500000000000e+00 1.545084971875e+00 -4.045084971875e+00
21 1 1 1.0 -4.045084971875e+00 2.500000000000e+00 -1.545084971875e+00
22 1 1 1.0 -5.000000000000e+00 0.000000000000e+00 0.000000000000e+00
23 1 1 1.0 2.500000000000e+00 1.545084971875e+00 4.045084971875e+00
24 1 1 1.0 4.045084971875e+00 2.500000000000e+00 1.545084971875e+00
25 1 1 1.0 -2.500000000000e+00 -1.545084971875e+00 4.045084971875e+00
26 1 1 1.0 0.000000000000e+00 0.000000000000e+00 5.000000000000e+00
27 1 1 1.0 -4.045084971875e+00 -2.500000000000e+00 -1.545084971875e+00
28 1 1 1.0 -4.045084971875e+00 -2.500000000000e+00 1.545084971875e+00
29 1 1 1.0 0.000000000000e+00 0.000000000000e+00 -5.000000000000e+00
30 1 1 1.0 -2.500000000000e+00 -1.545084971875e+00 -4.045084971875e+00
31 1 1 1.0 4.045084971875e+00 2.500000000000e+00 -1.545084971875e+00
32 1 1 1.0 2.500000000000e+00 1.545084971875e+00 -4.045084971875e+00
33 1 1 1.0 4.045084971875e+00 -2.500000000000e+00 1.545084971875e+00
34 1 1 1.0 2.500000000000e+00 -1.545084971875e+00 4.045084971875e+00
35 1 1 1.0 1.545084971875e+00 -4.045084971875e+00 2.500000000000e+00
36 1 1 1.0 -1.545084971875e+00 -4.045084971875e+00 2.500000000000e+00
37 1 1 1.0 0.000000000000e+00 -5.000000000000e+00 0.000000000000e+00
38 1 1 1.0 -1.545084971875e+00 -4.045084971875e+00 -2.500000000000e+00
39 1 1 1.0 1.545084971875e+00 -4.045084971875e+00 -2.500000000000e+00
40 1 1 1.0 2.500000000000e+00 -1.545084971875e+00 -4.045084971875e+00
41 1 1 1.0 4.045084971875e+00 -2.500000000000e+00 -1.545084971875e+00
42 1 1 1.0 5.000000000000e+00 0.000000000000e+00 0.000000000000e+00
