# Generated using make_ls_sphere.py (uniform sphere sampling)

1000 atoms
 1 atom types

-1.0 1.0 xlo xhi
-1.0 1.0 ylo yhi
-1.0 1.0 zlo zhi

Atoms

1 1 1 1.0 0.000000000000e+00 0.000000000000e+00 1.000000000000e+00
2 1 1 1.0 -4.663527924465e-02 4.272173594041e-02 9.979979979980e-01
3 1 1 1.0 7.815672007909e-03 -8.905555137670e-02 9.959959959960e-01
4 1 1 1.0 6.658428624526e-02 8.684741060663e-02 9.939939939940e-01
5 1 1 1.0 -1.243700843716e-01 -2.199931674313e-02 9.919919919920e-01
6 1 1 1.0 1.190855900810e-01 -7.575250461002e-02 9.899899899900e-01
7 1 1 1.0 -4.011683357260e-02 1.492326212849e-01 9.879879879880e-01
8 1 1 1.0 -7.689227151361e-02 -1.480513897967e-01 9.859859859860e-01
9 1 1 1.0 1.674404941279e-01 6.114899990374e-02 9.839839839840e-01
10 1 1 1.0 -1.746778014494e-01 7.210445716839e-02 9.819819819820e-01
11 1 1 1.0 8.438606524555e-02 -1.803281199115e-01 9.799799799800e-01
12 1 1 1.0 6.246296927900e-02 1.991417888314e-01 9.779779779780e-01
13 1 1 1.0 -1.885106297932e-01 -1.092457631798e-01 9.759759759760e-01
14 1 1 1.0 2.213732067976e-01 -4.866827851379e-02 9.739739739740e-01
15 1 1 1.0 -1.352110643175e-01 1.923238253234e-01 9.719719719720e-01
16 1 1 1.0 -3.125697467756e-02 -2.412079163097e-01 9.699699699700e-01
17 1 1 1.0 1.919832679560e-01 1.618037014809e-01 9.679679679680e-01
18 1 1 1.0 -2.584483057739e-01 1.068764885388e-02 9.659659659660e-01
19 1 1 1.0 1.885719077852e-01 -1.876542346262e-01 9.639639639640e-01
20 1 1 1.0 -1.261873741137e-02 2.728918305931e-01 9.619619619620e-01
21 1 1 1.0 -1.794864938444e-01 -2.150848060675e-01 9.599599599600e-01
22 1 1 1.0 2.843463481266e-01 3.825839897406e-02 9.579579579580e-01
23 1 1 1.0 -2.409302565751e-01 1.676329971663e-01 9.559559559560e-01
24 1 1 1.0 6.583411400106e-02 -2.926392372347e-01 9.539539539540e-01
25 1 1 1.0 1.522603593533e-01 2.657146291503e-01 9.519519519520e-01
26 1 1 1.0 -2.976232555178e-01 -9.494993609816e-02 9.499499499499e-01
27 1 1 1.0 2.890636872853e-01 -1.335547553414e-01 9.479479479479e-01
28 1 1 1.0 -1.252089996339e-01 2.991805036414e-01 9.459459459459e-01
29 1 1 1.0 -1.117250561193e-01 -3.106241177479e-01 9.439439439439e-01
30 1 1 1.0 2.972251785055e-01 1.562132237457e-01 9.419419419419e-01
31 1 1 1.0 -3.300654193500e-01 8.700418527312e-02 9.399399399399e-01
32 1 1 1.0 1.875642310884e-01 -2.917054743966e-01 9.379379379379e-01
33 1 1 1.0 5.964925835445e-02 3.470819640971e-01 9.359359359359e-01
34 1 1 1.0 -2.826048305346e-01 -2.188650652918e-01 9.339339339339e-01
35 1 1 1.0 3.613951023688e-01 -2.994084550386e-02 9.319319319319e-01
36 1 1 1.0 -2.497224393540e-01 2.699426396544e-01 9.299299299299e-01
37 1 1 1.0 1.818424913590e-03 -3.727552198189e-01 9.279279279279e-01
38 1 1 1.0 2.537744871922e-01 2.797493330619e-01 9.259259259259e-01
39 1 1 1.0 -3.809436770670e-01 -3.530577436769e-02 9.239239239239e-01
40 1 1 1.0 3.085678093062e-01 -2.341919660018e-01 9.219219219219e-01
41 1 1 1.0 -7.018058835475e-02 3.857745791945e-01 9.199199199199e-01
42 1 1 1.0 -2.113220980888e-01 -3.358119515809e-01 9.179179179179e-01
43 1 1 1.0 3.870963335083e-01 1.060870564977e-01 9.159159159159e-01
44 1 1 1.0 -3.611308460244e-01 1.853263877710e-01 9.139139139139e-01
45 1 1 1.0 1.426570740433e-01 -3.847929626937e-01 9.119119119119e-01
46 1 1 1.0 1.563995272896e-01 3.841915456010e-01 9.099099099099e-01
47 1 1 1.0 -3.787851473699e-01 -1.795133501729e-01 9.079079079079e-01
48 1 1 1.0 4.046819640665e-01 -1.247677747018e-01 9.059059059059e-01
49 1 1 1.0 -2.162726749466e-01 3.690309778037e-01 9.039039039039e-01
50 1 1 1.0 -9.068702397900e-02 -4.223136547965e-01 9.019019019019e-01
51 1 1 1.0 3.555263995241e-01 2.525493009326e-01 8.998998998999e-01
52 1 1 1.0 -4.368244353490e-01 5.444058809936e-02 8.978978978979e-01
53 1 1 1.0 2.879583984840e-01 -3.383053420498e-01 8.958958958959e-01
54 1 1 1.0 1.633671720013e-02 4.479808233958e-01 8.938938938939e-01
55 1 1 1.0 -3.174395240454e-01 -3.221195457456e-01 8.918918918919e-01
56 1 1 1.0 4.555802537733e-01 2.329412465814e-02 8.898898898899e-01
57 1 1 1.0 -3.546602161431e-01 2.930379320623e-01 8.878878878879e-01
58 1 1 1.0 6.410219901621e-02 -4.594530501253e-01 8.858858858859e-01
59 1 1 1.0 2.652459736385e-01 3.852192275561e-01 8.838838838839e-01
60 1 1 1.0 -4.594641280920e-01 -1.057216222214e-01 8.818818818819e-01
61 1 1 1.0 4.134501187483e-01 -2.342443089802e-01 8.798798798799e-01
62 1 1 1.0 -1.477736563020e-01 4.555144103492e-01 8.778778778779e-01
63 1 1 1.0 -2.002473687196e-01 -4.390244200264e-01 8.758758758759e-01
64 1 1 1.0 4.475419370732e-01 1.898701322521e-01 8.738738738739e-01
65 1 1 1.0 -4.616347865797e-01 1.635015683661e-01 8.718718718719e-01
66 1 1 1.0 2.316169754126e-01 -4.355226586451e-01 8.698698698699e-01
67 1 1 1.0 1.242832330144e-01 4.809979645632e-01 8.678678678679e-01
68 1 1 1.0 -4.194709006259e-01 -2.726178017966e-01 8.658658658659e-01
69 1 1 1.0 4.968575617504e-01 -8.289624865825e-02 8.638638638639e-01
70 1 1 1.0 -3.124775536090e-01 3.994394942398e-01 8.618618618619e-01
71 1 1 1.0 -3.966945905353e-02 -5.089865965035e-01 8.598598598599e-01
72 1 1 1.0 3.755195687921e-01 3.508061418586e-01 8.578578578579e-01
73 1 1 1.0 -5.171898009051e-01 -5.046170521662e-03 8.558558558559e-01
74 1 1 1.0 3.872220638777e-01 -3.478400056135e-01 8.538538538539e-01
75 1 1 1.0 -5.088059906797e-02 5.213056561510e-01 8.518518518519e-01
76 1 1 1.0 -3.165665562482e-01 -4.213559637353e-01 8.498498498498e-01
77 1 1 1.0 5.212081407132e-01 9.744793971165e-02 8.478478478478e-01
78 1 1 1.0 -4.528541039785e-01 2.819006306754e-01 8.458458458458e-01
79 1 1 1.0 1.443498463430e-01 -5.168081743429e-01 8.438438438438e-01
80 1 1 1.0 2.440777643502e-01 4.813817178437e-01 8.418418418418e-01
81 1 1 1.0 -5.080547436615e-01 -1.911790282975e-01 8.398398398398e-01
82 1 1 1.0 5.066262120518e-01 -2.033657757571e-01 8.378378378378e-01
83 1 1 1.0 -2.375228630939e-01 4.949356978844e-01 8.358358358358e-01
84 1 1 1.0 -1.600626289565e-01 -5.283001915252e-01 8.338338338338e-01
85 1 1 1.0 4.774782061005e-01 2.829670762656e-01 8.318318318318e-01
86 1 1 1.0 -5.461442788364e-01 1.144940182667e-01 8.298298298298e-01
87 1 1 1.0 3.270994566248e-01 -4.557488704864e-01 8.278278278278e-01
88 1 1 1.0 6.701069472560e-02 5.599297029016e-01 8.258258258258e-01
89 1 1 1.0 -4.298534928223e-01 -3.695135748640e-01 8.238238238238e-01
90 1 1 1.0 5.694606333556e-01 -1.798555630680e-02 8.218218218218e-01
91 1 1 1.0 -4.098124732581e-01 3.999364946997e-01 8.198198198198e-01
92 1 1 1.0 3.218947399300e-02 -5.745762391744e-01 8.178178178178e-01
93 1 1 1.0 3.661799948194e-01 4.476122943562e-01 8.158158158158e-01
94 1 1 1.0 -5.751524524232e-01 -8.310675614752e-02 8.138138138138e-01
95 1 1 1.0 4.825458169637e-01 -3.288025497675e-01 8.118118118118e-01
96 1 1 1.0 -1.343463994191e-01 5.711034204931e-01 8.098098098098e-01
97 1 1 1.0 -2.880575675885e-01 -5.142658683986e-01 8.078078078078e-01
98 1 1 1.0 5.623826328132e-01 1.854798577736e-01 8.058058058058e-01
99 1 1 1.0 -5.424485829556e-01 2.442314063341e-01 8.038038038038e-01
100 1 1 1.0 2.360736239438e-01 -5.489837107833e-01 8.018018018018e-01
101 1 1 1.0 1.976411725231e-01 5.667964777272e-01 7.997997997998e-01
102 1 1 1.0 -5.309408525226e-01 -2.856929907288e-01 7.977977977978e-01
103 1 1 1.0 5.870413183874e-01 -1.486322370809e-01 7.957957957958e-01
104 1 1 1.0 -3.339058474252e-01 5.083289269653e-01 7.937937937938e-01
105 1 1 1.0 -9.757548882027e-02 -6.029467492512e-01 7.917917917918e-01
106 1 1 1.0 4.812632148181e-01 3.802864788639e-01 7.897897897898e-01
107 1 1 1.0 -6.143106638380e-01 4.486434784208e-02 7.877877877878e-01
108 1 1 1.0 4.244193343819e-01 -4.498987969086e-01 7.857857857858e-01
109 1 1 1.0 -9.088436621031e-03 6.209672943057e-01 7.837837837838e-01
110 1 1 1.0 -4.144295934710e-01 -4.659027341942e-01 7.817817817818e-01
111 1 1 1.0 6.227890004380e-01 6.385417746727e-02 7.797797797798e-01
112 1 1 1.0 -5.043524810439e-01 3.750870609072e-01 7.777777777778e-01
113 1 1 1.0 1.189918019277e-01 -6.196877413613e-01 7.757757757758e-01
114 1 1 1.0 3.321385555096e-01 5.394053456946e-01 7.737737737738e-01
115 1 1 1.0 -6.116162158071e-01 -1.740515350638e-01 7.717717717718e-01
116 1 1 1.0 5.707223957850e-01 -2.858853765026e-01 7.697697697698e-01
117 1 1 1.0 -2.285786836865e-01 5.985686595045e-01 7.677677677678e-01
118 1 1 1.0 -2.366605035356e-01 -5.979921387840e-01 7.657657657658e-01
119 1 1 1.0 5.805812911602e-01 2.821174888520e-01 7.637637637638e-01
120 1 1 1.0 -6.209334512515e-01 1.848260464180e-01 7.617617617618e-01
121 1 1 1.0 3.342150143823e-01 -5.577324014357e-01 7.597597597598e-01
122 1 1 1.0 1.307704273944e-01 6.392982683200e-01 7.577577577578e-01
123 1 1 1.0 -5.301420823404e-01 -3.844250384325e-01 7.557557557558e-01
124 1 1 1.0 6.528740092440e-01 -7.490531860838e-02 7.537537537538e-01
125 1 1 1.0 -4.323119149684e-01 4.979715974978e-01 7.517517517518e-01
126 1 1 1.0 -1.766235956346e-02 -6.614857170074e-01 7.497497497497e-01
127 1 1 1.0 4.614223967861e-01 4.774543721471e-01 7.477477477477e-01
128 1 1 1.0 -6.649978923163e-01 -4.051031864787e-02 7.457457457457e-01
129 1 1 1.0 5.194492149972e-01 -4.207347818767e-01 7.437437437437e-01
130 1 1 1.0 -9.915173384051e-02 6.633160048079e-01 7.417417417417e-01
131 1 1 1.0 -3.761862321719e-01 -5.579149004768e-01 7.397397397397e-01
132 1 1 1.0 6.563876669708e-01 1.577918279448e-01 7.377377377377e-01
133 1 1 1.0 -5.924949539368e-01 3.280894035485e-01 7.357357357357e-01
134 1 1 1.0 2.159553456580e-01 -6.442034590585e-01 7.337337337337e-01
135 1 1 1.0 2.767898151233e-01 6.228611972349e-01 7.317317317317e-01
136 1 1 1.0 -6.267973961748e-01 -2.731657842723e-01 7.297297297297e-01
137 1 1 1.0 6.487167602132e-01 -2.226632419479e-01 7.277277277277e-01
138 1 1 1.0 -3.289493816865e-01 6.042470316915e-01 7.257257257257e-01
139 1 1 1.0 -1.661128340886e-01 -6.697988489618e-01 7.237237237237e-01
140 1 1 1.0 5.766731941927e-01 3.828391091498e-01 7.217217217217e-01
141 1 1 1.0 -6.858812462316e-01 1.075659849315e-01 7.197197197197e-01
142 1 1 1.0 4.343786351158e-01 -5.442393582138e-01 7.177177177177e-01
143 1 1 1.0 4.747097375160e-02 6.967765215107e-01 7.157157157157e-01
144 1 1 1.0 -5.071506521183e-01 -4.831262266871e-01 7.137137137137e-01
145 1 1 1.0 7.023379306229e-01 1.370659041420e-02 7.117117117117e-01
146 1 1 1.0 -5.286585555200e-01 4.656525095168e-01 7.097097097097e-01
147 1 1 1.0 7.548749477597e-02 -7.024609872324e-01 7.077077077077e-01
148 1 1 1.0 4.200289736453e-01 5.705743757241e-01 7.057057057057e-01
149 1 1 1.0 -6.970846913150e-01 -1.373827883249e-01 7.037037037037e-01
150 1 1 1.0 6.084980422296e-01 -3.706006670686e-01 7.017017017017e-01
151 1 1 1.0 -1.988977552415e-01 6.861924024645e-01 6.996996996997e-01
152 1 1 1.0 -3.177224419239e-01 -6.420828393013e-01 6.976976976977e-01
153 1 1 1.0 6.698123488284e-01 2.595359634953e-01 6.956956956957e-01
154 1 1 1.0 -6.710140903399e-01 2.617807286545e-01 6.936936936937e-01
155 1 1 1.0 3.188033551886e-01 -6.480177654704e-01 6.916916916917e-01
156 1 1 1.0 2.031906037783e-01 6.950120218183e-01 6.896896896897e-01
157 1 1 1.0 -6.209266590270e-01 -3.762123447102e-01 6.876876876877e-01
158 1 1 1.0 7.138343561409e-01 -1.423925996623e-01 6.856856856857e-01
159 1 1 1.0 -4.312858905596e-01 5.887011986304e-01 6.836836836837e-01
160 1 1 1.0 -7.984928152428e-02 -7.272786103686e-01 6.816816816817e-01
161 1 1 1.0 5.515467361825e-01 4.835615067775e-01 6.796796796797e-01
162 1 1 1.0 -7.351840801049e-01 1.604161892446e-02 6.776776776777e-01
163 1 1 1.0 5.325951802814e-01 -5.097104621658e-01 6.756756756757e-01
164 1 1 1.0 -4.853481916405e-02 7.374334903757e-01 6.736736736737e-01
165 1 1 1.0 -4.634797062334e-01 -5.779651610465e-01 6.716716716717e-01
166 1 1 1.0 7.339542980253e-01 1.133738150310e-01 6.696696696697e-01
167 1 1 1.0 -6.192755929912e-01 4.131798948117e-01 6.676676676677e-01
168 1 1 1.0 1.779625666355e-01 -7.247196329826e-01 6.656656656657e-01
169 1 1 1.0 3.591721808474e-01 6.561599546131e-01 6.636636636637e-01
170 1 1 1.0 -7.097488686966e-01 -2.417858326516e-01 6.616616616617e-01
171 1 1 1.0 6.882842798747e-01 -3.018507636152e-01 6.596596596597e-01
172 1 1 1.0 -3.043301242528e-01 6.891078150743e-01 6.576576576577e-01
173 1 1 1.0 -2.416399191443e-01 -7.153501315319e-01 6.556556556557e-01
174 1 1 1.0 6.629085303530e-01 3.650879092087e-01 6.536536536537e-01
175 1 1 1.0 -7.370973010349e-01 1.789907643056e-01 6.516516516517e-01
176 1 1 1.0 4.235617936206e-01 -6.313087514798e-01 6.496496496496e-01
177 1 1 1.0 1.143777799002e-01 7.533062112857e-01 6.476476476476e-01
178 1 1 1.0 -5.945109457235e-01 -4.792686466626e-01 6.456456456456e-01
179 1 1 1.0 7.638000008924e-01 -4.829512018790e-02 6.436436436436e-01
180 1 1 1.0 -5.317436340230e-01 5.527609893864e-01 6.416416416416e-01
181 1 1 1.0 1.874726182780e-02 -7.684462711053e-01 6.396396396396e-01
182 1 1 1.0 5.063464825844e-01 5.805441263524e-01 6.376376376376e-01
183 1 1 1.0 -7.671584793225e-01 -8.622764239904e-02 6.356356356356e-01
184 1 1 1.0 6.252534499142e-01 -4.555947121056e-01 6.336336336336e-01
185 1 1 1.0 -1.536166759671e-01 7.598969659021e-01 6.316316316316e-01
186 1 1 1.0 -4.008702773061e-01 -6.654844478010e-01 6.296296296296e-01
187 1 1 1.0 7.466696039845e-01 2.203816315489e-01 6.276276276276e-01
188 1 1 1.0 -7.008828215073e-01 3.425723968397e-01 6.256256256256e-01
189 1 1 1.0 2.859906822377e-01 -7.275320650884e-01 6.236236236236e-01
190 1 1 1.0 2.811319167171e-01 7.311302243346e-01 6.216216216216e-01
191 1 1 1.0 -7.025876963750e-01 -3.499172129017e-01 6.196196196196e-01
192 1 1 1.0 7.559470800257e-01 -2.170080427289e-01 6.176176176176e-01
193 1 1 1.0 -4.116441108714e-01 6.719870086505e-01 6.156156156156e-01
194 1 1 1.0 -1.506848226288e-01 -7.750951021761e-01 6.136136136136e-01
195 1 1 1.0 6.359267773688e-01 4.706680044014e-01 6.116116116116e-01
196 1 1 1.0 -7.883794923249e-01 8.266740562686e-02 6.096096096096e-01
197 1 1 1.0 5.265034139798e-01 -5.946487620815e-01 6.076076076076e-01
198 1 1 1.0 1.347810868410e-02 7.956507971751e-01 6.056056056056e-01
199 1 1 1.0 -5.484380529337e-01 -5.786867821292e-01 6.036036036036e-01
200 1 1 1.0 7.968064081064e-01 5.634767919779e-02 6.016016016016e-01
201 1 1 1.0 -6.267803482015e-01 4.976210558933e-01 5.995995995996e-01
202 1 1 1.0 1.262657220465e-01 -7.917916890077e-01 5.975975975976e-01
203 1 1 1.0 4.425631314063e-01 6.703758358018e-01 5.955955955956e-01
204 1 1 1.0 -7.806007214391e-01 -1.957272575128e-01 5.935935935936e-01
205 1 1 1.0 7.090979218803e-01 -3.836659040665e-01 5.915915915916e-01
206 1 1 1.0 -2.641833782355e-01 7.632766592210e-01 5.895895895896e-01
207 1 1 1.0 -3.213642636445e-01 -7.426074581939e-01 5.875875875876e-01
208 1 1 1.0 7.399116877082e-01 3.310894385920e-01 5.855855855856e-01
209 1 1 1.0 -7.706044177429e-01 2.561230804260e-01 5.835835835836e-01
210 1 1 1.0 3.959094510973e-01 -7.106465862135e-01 5.815815815816e-01
211 1 1 1.0 1.884336602302e-01 7.928305409270e-01 5.795795795796e-01
212 1 1 1.0 -6.756698952816e-01 -4.581204366646e-01 5.775775775776e-01
213 1 1 1.0 8.090716585155e-01 -1.188099667026e-01 5.755755755756e-01
214 1 1 1.0 -5.172166931676e-01 6.352166937406e-01 5.735735735736e-01
215 1 1 1.0 -4.778464048323e-02 -8.191596710685e-01 5.715715715716e-01
216 1 1 1.0 5.895669936565e-01 5.727139472819e-01 5.695695695696e-01
217 1 1 1.0 -8.229741671699e-01 -2.409515338205e-02 5.675675675676e-01
218 1 1 1.0 6.241533553872e-01 -5.390437644620e-01 5.655655655656e-01
219 1 1 1.0 -9.627201689661e-02 8.204436656994e-01 5.635635635636e-01
220 1 1 1.0 -4.840106005907e-01 -6.711053204173e-01 5.615615615616e-01
221 1 1 1.0 8.115464703782e-01 1.681827152898e-01 5.595595595596e-01
222 1 1 1.0 -7.131730929076e-01 4.248690499002e-01 5.575575575576e-01
223 1 1 1.0 2.392626427879e-01 -7.963111279252e-01 5.555555555556e-01
224 1 1 1.0 3.620556229941e-01 7.499961261277e-01 5.535535535536e-01
225 1 1 1.0 -7.748164843512e-01 -3.089503221535e-01 5.515515515516e-01
226 1 1 1.0 7.812531570666e-01 -2.960385062172e-01 5.495495495495e-01
227 1 1 1.0 -3.766919017563e-01 7.471913371593e-01 5.475475475475e-01
228 1 1 1.0 -2.273140035912e-01 -8.066649871581e-01 5.455455455455e-01
229 1 1 1.0 7.136136844911e-01 4.419456138249e-01 5.435435435435e-01
230 1 1 1.0 -8.259969389716e-01 1.564027352520e-01 5.415415415415e-01
231 1 1 1.0 5.041861577057e-01 -6.743095755300e-01 5.395395395395e-01
232 1 1 1.0 8.384562202357e-02 8.390609676332e-01 5.375375375375e-01
233 1 1 1.0 -6.295515697199e-01 -5.629089724297e-01 5.355355355355e-01
234 1 1 1.0 8.457174084574e-01 -1.019968760875e-02 5.335335335335e-01
235 1 1 1.0 -6.176343636548e-01 5.796568155559e-01 5.315315315315e-01
236 1 1 1.0 6.396628853174e-02 -8.458763451520e-01 5.295295295295e-01
237 1 1 1.0 5.249847628203e-01 6.679114510976e-01 5.275275275275e-01
238 1 1 1.0 -8.394985859683e-01 -1.380762332133e-01 5.255255255255e-01
239 1 1 1.0 7.133219039032e-01 -4.659345251528e-01 5.235235235235e-01
240 1 1 1.0 -2.115513210192e-01 8.265962382959e-01 5.215215215215e-01
241 1 1 1.0 -4.029419127350e-01 -7.534834329961e-01 5.195195195195e-01
242 1 1 1.0 8.072328754125e-01 2.838145590270e-01 5.175175175175e-01
243 1 1 1.0 -7.880530113061e-01 3.364761576013e-01 5.155155155155e-01
244 1 1 1.0 3.542953780672e-01 -7.815232923715e-01 5.135135135135e-01
245 1 1 1.0 2.670363566546e-01 8.167297948623e-01 5.115115115115e-01
246 1 1 1.0 -7.496328513159e-01 -4.224341936295e-01 5.095095095095e-01
247 1 1 1.0 8.392577200635e-01 -1.951476598307e-01 5.075075075075e-01
248 1 1 1.0 -4.876868996466e-01 7.117764198235e-01 5.055055055055e-01
249 1 1 1.0 -1.213572330071e-01 -8.554277549604e-01 5.035035035035e-01
250 1 1 1.0 6.682169091810e-01 5.495292587992e-01 5.015015015015e-01
251 1 1 1.0 -8.650797850993e-01 4.623002717216e-02 4.994994994995e-01
252 1 1 1.0 6.074611536938e-01 -6.192634227344e-01 4.974974974975e-01
253 1 1 1.0 -2.965561295995e-02 8.681041173521e-01 4.954954954955e-01
254 1 1 1.0 -5.652690276404e-01 -6.610106642635e-01 4.934934934935e-01
255 1 1 1.0 8.644425881809e-01 1.057124662969e-01 4.914914914915e-01
256 1 1 1.0 -7.097379380231e-01 5.066281664199e-01 4.894894894895e-01
257 1 1 1.0 1.813490429536e-01 -8.540892659219e-01 4.874874874875e-01
258 1 1 1.0 4.437737276711e-01 7.532388213653e-01 4.854854854855e-01
259 1 1 1.0 -8.370907399059e-01 -2.559742455061e-01 4.834834834835e-01
260 1 1 1.0 7.911482218984e-01 -3.771737981056e-01 4.814814814815e-01
261 1 1 1.0 -3.290020467896e-01 8.135459925329e-01 4.794794794795e-01
262 1 1 1.0 -3.073281207076e-01 -8.231431738914e-01 4.774774774775e-01
263 1 1 1.0 7.836058537551e-01 3.998561468605e-01 4.754754754755e-01
264 1 1 1.0 -8.489455811854e-01 2.347642862590e-01 4.734734734735e-01
265 1 1 1.0 4.679745717877e-01 -7.474720407806e-01 4.714714714715e-01
266 1 1 1.0 1.600336877066e-01 8.683246144358e-01 4.694694694695e-01
267 1 1 1.0 -7.053957891464e-01 -5.328141772833e-01 4.674674674675e-01
268 1 1 1.0 8.810987422541e-01 -8.370726884409e-02 4.654654654655e-01
269 1 1 1.0 -5.938550208282e-01 6.576760846128e-01 4.634634634635e-01
270 1 1 1.0 -6.371100536939e-03 -8.871373786871e-01 4.614614614615e-01
271 1 1 1.0 6.046575085622e-01 6.506045668857e-01 4.594594594595e-01
272 1 1 1.0 -8.863621324961e-01 -7.137818079457e-02 4.574574574575e-01
273 1 1 1.0 7.026016910248e-01 -5.467277127281e-01 4.554554554555e-01
274 1 1 1.0 -1.489380365043e-01 8.787476468437e-01 4.534534534535e-01
275 1 1 1.0 -4.843145420989e-01 -7.494204502774e-01 4.514514514515e-01
276 1 1 1.0 8.643220212458e-01 2.257047540022e-01 4.494494494494e-01
277 1 1 1.0 -7.906735888269e-01 4.178828277212e-01 4.474474474474e-01
278 1 1 1.0 3.010782024966e-01 -8.431668109653e-01 4.454454454454e-01
279 1 1 1.0 3.479308738385e-01 8.260157501507e-01 4.434434434434e-01
280 1 1 1.0 -8.154166023964e-01 -3.744665783677e-01 4.414414414414e-01
281 1 1 1.0 8.551463689981e-01 -2.749866663214e-01 4.394394394394e-01
282 1 1 1.0 -4.452911023133e-01 7.812581663757e-01 4.374374374374e-01
283 1 1 1.0 -1.996038316608e-01 -8.778122190728e-01 4.354354354354e-01
284 1 1 1.0 7.409291947414e-01 5.129906306766e-01 4.334334334334e-01
285 1 1 1.0 -8.938095949653e-01 1.223573778769e-01 4.314314314314e-01
286 1 1 1.0 5.770261439432e-01 -6.947166288106e-01 4.294294294294e-01
287 1 1 1.0 4.383925053474e-02 9.029861097466e-01 4.274274274274e-01
288 1 1 1.0 -6.429545917346e-01 -6.368850762649e-01 4.254254254254e-01
289 1 1 1.0 9.052420926491e-01 3.534626136713e-02 4.234234234234e-01
290 1 1 1.0 -6.920854510342e-01 5.860219398912e-01 4.214214214214e-01
291 1 1 1.0 1.145872335672e-01 -9.005315744144e-01 4.194194194194e-01
292 1 1 1.0 5.243394515629e-01 7.421797889806e-01 4.174174174174e-01
293 1 1 1.0 -8.888628511423e-01 -1.932688916884e-01 4.154154154154e-01
294 1 1 1.0 7.867587569812e-01 -4.583666740976e-01 4.134134134134e-01
295 1 1 1.0 -2.707784355578e-01 8.702986208178e-01 4.114114114114e-01
296 1 1 1.0 -3.885984535376e-01 -8.254545277574e-01 4.094094094094e-01
297 1 1 1.0 8.449556900861e-01 3.465098644783e-01 4.074074074074e-01
298 1 1 1.0 -8.579438228539e-01 3.155611733006e-01 4.054054054054e-01
299 1 1 1.0 4.198687651111e-01 -8.130042522685e-01 4.034034034034e-01
300 1 1 1.0 2.398087308968e-01 8.839506137442e-01 4.014014014014e-01
301 1 1 1.0 -7.746667410354e-01 -4.902770238274e-01 3.993993993994e-01
302 1 1 1.0 9.032484585668e-01 -1.619182838298e-01 3.973973973974e-01
303 1 1 1.0 -5.571774258789e-01 7.302162675475e-01 3.953953953954e-01
304 1 1 1.0 -8.248579775965e-02 -9.156624548393e-01 3.933933933934e-01
305 1 1 1.0 6.799746522197e-01 6.200381045414e-01 3.913913913914e-01
306 1 1 1.0 -9.210707915023e-01 2.121431666835e-03 3.893893893894e-01
307 1 1 1.0 6.783568044795e-01 -6.243100655200e-01 3.873873873874e-01
308 1 1 1.0 -7.855520384920e-02 9.194058867984e-01 3.853853853854e-01
309 1 1 1.0 -5.636342953708e-01 -7.316649249673e-01 3.833833833834e-01
310 1 1 1.0 9.106551017504e-01 1.589198778993e-01 3.813813813814e-01
311 1 1 1.0 -7.795313102627e-01 4.983996617392e-01 3.793793793794e-01
312 1 1 1.0 2.383486222125e-01 -8.948610223566e-01 3.773773773774e-01
313 1 1 1.0 4.290956018635e-01 8.215657563599e-01 3.753753753754e-01
314 1 1 1.0 -8.721213070371e-01 -3.162226270645e-01 3.733733733734e-01
315 1 1 1.0 8.574222055235e-01 -3.562449522464e-01 3.713713713714e-01
316 1 1 1.0 -3.919331114671e-01 8.425880993151e-01 3.693693693694e-01
317 1 1 1.0 -2.803999560250e-01 -8.868016024200e-01 3.673673673674e-01
318 1 1 1.0 8.064670091750e-01 4.648861289647e-01 3.653653653654e-01
319 1 1 1.0 -9.094543882874e-01 2.021380265811e-01 3.633633633634e-01
320 1 1 1.0 5.345072708025e-01 -7.640156699796e-01 3.613613613614e-01
321 1 1 1.0 1.220573002721e-01 9.251826124021e-01 3.593593593594e-01
322 1 1 1.0 -7.155418812185e-01 -6.002462289468e-01 3.573573573574e-01
323 1 1 1.0 9.338416430973e-01 -4.077201292056e-02 3.553553553554e-01
324 1 1 1.0 -6.615811824684e-01 6.614013506773e-01 3.533533533534e-01
325 1 1 1.0 4.109226381758e-02 -9.353414637222e-01 3.513513513514e-01
326 1 1 1.0 6.019950528328e-01 7.180229721074e-01 3.493493493493e-01
327 1 1 1.0 -9.296475421960e-01 -1.229034888836e-01 3.473473473473e-01
328 1 1 1.0 7.691190294429e-01 -5.377662233695e-01 3.453453453453e-01
329 1 1 1.0 -2.040280828202e-01 9.167812661712e-01 3.433433433433e-01
330 1 1 1.0 -4.691970126455e-01 -8.144570289560e-01 3.413413413413e-01
331 1 1 1.0 8.968199392495e-01 2.838358845201e-01 3.393393393393e-01
332 1 1 1.0 -8.536682334057e-01 3.968048237007e-01 3.373373373373e-01
333 1 1 1.0 3.617050945975e-01 -8.698963371677e-01 3.353353353353e-01
334 1 1 1.0 3.211383629617e-01 8.864305052982e-01 3.333333333333e-01
335 1 1 1.0 -8.361978263635e-01 -4.370271662760e-01 3.313313313313e-01
336 1 1 1.0 9.124709598230e-01 -2.427734341381e-01 3.293293293293e-01
337 1 1 1.0 -5.092116050170e-01 7.959650508036e-01 3.273273273273e-01
338 1 1 1.0 -1.623085079169e-01 -9.315682374146e-01 3.253253253253e-01
339 1 1 1.0 7.494901964000e-01 5.776906387467e-01 3.233233233233e-01
340 1 1 1.0 -9.435543770689e-01 8.036010190633e-02 3.213213213213e-01
341 1 1 1.0 6.419237214867e-01 -6.971148457048e-01 3.193193193193e-01
342 1 1 1.0 -2.441993137748e-03 9.483162746679e-01 3.173173173173e-01
343 1 1 1.0 -6.392274388560e-01 -7.014018344296e-01 3.153153153153e-01
344 1 1 1.0 9.457967138212e-01 8.545960347247e-02 3.133133133133e-01
345 1 1 1.0 -7.556515500305e-01 5.762603598949e-01 3.113113113113e-01
346 1 1 1.0 1.680511405848e-01 -9.359949600947e-01 3.093093093093e-01
347 1 1 1.0 5.086866705918e-01 8.042388264923e-01 3.073073073073e-01
348 1 1 1.0 -9.189669129380e-01 -2.495766084344e-01 3.053053053053e-01
349 1 1 1.0 8.467725020881e-01 -4.370165167506e-01 3.033033033033e-01
350 1 1 1.0 -3.294026103021e-01 8.948248131117e-01 3.013013013013e-01
351 1 1 1.0 -3.617932346103e-01 -8.829074610791e-01 2.992992992993e-01
352 1 1 1.0 8.637365069348e-01 4.069073157463e-01 2.972972972973e-01
353 1 1 1.0 -9.123474455329e-01 2.835891873928e-01 2.952952952953e-01
354 1 1 1.0 4.814853484064e-01 -8.259242721818e-01 2.932932932933e-01
355 1 1 1.0 2.030013642420e-01 9.348474900933e-01 2.912912912913e-01
356 1 1 1.0 -7.816632139401e-01 -5.525525559396e-01 2.892892892893e-01
357 1 1 1.0 9.502159596984e-01 -1.206467757446e-01 2.872872872873e-01
358 1 1 1.0 -6.195506242353e-01 7.312792421567e-01 2.852852852853e-01
359 1 1 1.0 -3.715768189893e-02 -9.583161733416e-01 2.832832832833e-01
360 1 1 1.0 6.751466459397e-01 6.819514992117e-01 2.812812812813e-01
361 1 1 1.0 -9.590676002172e-01 -4.682331020809e-02 2.792792792793e-01
362 1 1 1.0 7.392615809481e-01 -6.136852828933e-01 2.772772772773e-01
363 1 1 1.0 -1.306482406522e-01 9.524466179459e-01 2.752752752753e-01
364 1 1 1.0 -5.473574048500e-01 -7.910256566449e-01 2.732732732733e-01
365 1 1 1.0 9.384868260226e-01 2.136688436924e-01 2.712712712713e-01
366 1 1 1.0 -8.368305409039e-01 4.766641442752e-01 2.692692692693e-01
367 1 1 1.0 2.952416079101e-01 -9.172789111312e-01 2.672672672673e-01
368 1 1 1.0 4.021416883477e-01 8.763083940809e-01 2.652652652653e-01
369 1 1 1.0 -8.889700645094e-01 -3.747328096419e-01 2.632632632633e-01
370 1 1 1.0 9.091396919509e-01 -3.243571702363e-01 2.612612612613e-01
371 1 1 1.0 -4.515234800213e-01 8.537629550864e-01 2.592592592593e-01
372 1 1 1.0 -2.439043093825e-01 -9.350558226401e-01 2.572572572573e-01
373 1 1 1.0 8.119142656354e-01 5.250142663988e-01 2.552552552553e-01
374 1 1 1.0 -9.538412896783e-01 1.613988346346e-01 2.532532532533e-01
375 1 1 1.0 5.946301496785e-01 -7.637328026463e-01 2.512512512513e-01
376 1 1 1.0 7.747372585375e-02 9.653355031029e-01 2.492492492492e-01
377 1 1 1.0 -7.095771940104e-01 -6.598249801795e-01 2.472472472472e-01
378 1 1 1.0 9.694341437687e-01 7.225688891373e-03 2.452452452452e-01
379 1 1 1.0 -7.200857960043e-01 6.498531918897e-01 2.432432432432e-01
380 1 1 1.0 9.204674222727e-02 -9.660900893652e-01 2.412412412412e-01
381 1 1 1.0 5.850106012872e-01 7.749368895528e-01 2.392392392392e-01
382 1 1 1.0 -9.553138940836e-01 -1.763345032567e-01 2.372372372372e-01
383 1 1 1.0 8.239435897539e-01 -5.155398578260e-01 2.352352352352e-01
384 1 1 1.0 -2.594368804109e-01 9.371738173883e-01 2.332332332332e-01
385 1 1 1.0 -4.419682810502e-01 -8.667157297804e-01 2.312312312312e-01
386 1 1 1.0 9.117954008991e-01 3.407097112884e-01 2.292292292292e-01
387 1 1 1.0 -9.029107724471e-01 3.648560321629e-01 2.272272272272e-01
388 1 1 1.0 4.195217994369e-01 -8.793605959557e-01 2.252252252252e-01
389 1 1 1.0 2.847918074953e-01 9.322365681507e-01 2.232232232232e-01
390 1 1 1.0 -8.401064479863e-01 -4.952598583907e-01 2.212212212212e-01
391 1 1 1.0 9.544537230742e-01 -2.023883011312e-01 2.192192192192e-01
392 1 1 1.0 -5.673333239516e-01 7.943233473079e-01 2.172172172172e-01
393 1 1 1.0 -1.182774719840e-01 -9.693775584162e-01 2.152152152152e-01
394 1 1 1.0 7.423528594187e-01 6.351789966806e-01 2.132132132132e-01
395 1 1 1.0 -9.768796446083e-01 3.310565221559e-02 2.112112112112e-01
396 1 1 1.0 6.982654778532e-01 -6.845851511832e-01 2.092092092092e-01
397 1 1 1.0 -5.247146480702e-02 9.768888978090e-01 2.072072072072e-01
398 1 1 1.0 -6.214560325164e-01 -7.560973637076e-01 2.052052052052e-01
399 1 1 1.0 9.693922293992e-01 1.377939178207e-01 2.032032032032e-01
400 1 1 1.0 -8.082191646739e-01 5.534436362350e-01 2.012012012012e-01
401 1 1 1.0 2.222026123471e-01 -9.544347427166e-01 1.991991991992e-01
402 1 1 1.0 4.810647616271e-01 8.542189183917e-01 1.971971971972e-01
403 1 1 1.0 -9.321194748246e-01 -3.050444564738e-01 1.951951951952e-01
404 1 1 1.0 8.937314677005e-01 -4.048709099771e-01 1.931931931932e-01
405 1 1 1.0 -3.856774573990e-01 9.026066847000e-01 1.911911911912e-01
406 1 1 1.0 -3.254440427472e-01 -9.264413773868e-01 1.891891891892e-01
407 1 1 1.0 8.661126927961e-01 4.634757386644e-01 1.871871871872e-01
408 1 1 1.0 -9.520854662858e-01 2.433920953427e-01 1.851851851852e-01
409 1 1 1.0 5.378344385705e-01 -8.229082804823e-01 1.831831831832e-01
410 1 1 1.0 1.593442813556e-01 9.704549343401e-01 1.811811811812e-01
411 1 1 1.0 -7.733166613398e-01 -6.081744511593e-01 1.791791791792e-01
412 1 1 1.0 9.813970673801e-01 -7.394622387397e-02 1.771771771772e-01
413 1 1 1.0 -6.739469723398e-01 7.177110396785e-01 1.751751751752e-01
414 1 1 1.0 1.214504814653e-02 -9.848165056997e-01 1.731731731732e-01
415 1 1 1.0 6.565117749146e-01 7.346378152248e-01 1.711711711712e-01
416 1 1 1.0 -9.806760659200e-01 -9.826619934769e-02 1.691691691692e-01
417 1 1 1.0 7.897714605223e-01 -5.901831735706e-01 1.671671671672e-01
418 1 1 1.0 -1.837527433674e-01 9.689971091396e-01 1.651651651652e-01
419 1 1 1.0 -5.192299336192e-01 -8.389148098707e-01 1.631631631632e-01
420 1 1 1.0 9.498594519365e-01 2.679442137837e-01 1.611611611612e-01
421 1 1 1.0 -8.816806123162e-01 4.441932686585e-01 1.591591591592e-01
422 1 1 1.0 3.501893100502e-01 -9.234008203813e-01 1.571571571572e-01
423 1 1 1.0 3.656467419544e-01 9.177305366647e-01 1.551551551552e-01
424 1 1 1.0 -8.898158508220e-01 -4.298509780205e-01 1.531531531532e-01
425 1 1 1.0 9.467778652066e-01 -2.841918427057e-01 1.511511511512e-01
426 1 1 1.0 -5.063113851334e-01 8.493546447700e-01 1.491491491491e-01
427 1 1 1.0 -2.004533389466e-01 -9.685897872637e-01 1.471471471471e-01
428 1 1 1.0 8.023208887377e-01 5.789767511186e-01 1.451451451451e-01