# Generated using make_ls_sphere.py (uniform sphere sampling)

1600 atoms
 1 atom types

-1.0 1.0 xlo xhi
-1.0 1.0 ylo yhi
-1.0 1.0 zlo zhi

Atoms

1 1 1 1.0 0.0 0.0 1.0
2 1 1 1.0 -0.036868436694037776 0.03377450810823715 0.9987492182614134
3 1 1 1.0 0.006179996496829992 -0.07041787257376711 0.9974984365228268
4 1 1 1.0 0.05265935646730904 0.06868480554933769 0.9962476547842402
5 1 1 1.0 -0.09837885344039281 -0.017401833958675842 0.9949968730456535
6 1 1 1.0 0.09421655140820932 -0.05993285787171219 0.9937460913070669
7 1 1 1.0 -0.03174511720880466 0.11809025369591553 0.9924953095684803
8 1 1 1.0 -0.060857682610553146 -0.11717776459108731 0.9912445278298937
9 1 1 1.0 0.13254879503199724 0.04840660735546535 0.9899937460913071
10 1 1 1.0 -0.13830430749855255 0.05709000762253205 0.9887429643527205
11 1 1 1.0 0.06682693832008967 -0.1428052855840324 0.9874921826141339
12 1 1 1.0 0.049475071044639884 0.15773432265732773 0.9862414008755472
13 1 1 1.0 -0.14934227260280883 -0.08654689957482778 0.9849906191369606
14 1 1 1.0 0.17541034986120094 -0.038563473352276646 0.983739837398374
15 1 1 1.0 -0.10715828980824693 0.15242164030776914 0.9824890556597874
16 1 1 1.0 -0.024776730946532915 -0.19120032268734713 0.9812382739212008
17 1 1 1.0 0.15221032140053267 0.12828302001737135 0.9799874921826142
18 1 1 1.0 -0.20494541637266359 0.008475136402403001 0.9787367104440275
19 1 1 1.0 0.1495634417643918 -0.14883560081664277 0.9774859287054409
20 1 1 1.0 -0.010010330887333996 0.21648263464335987 0.9762351469668543
21 1 1 1.0 -0.1424126335180375 -0.17065793088775286 0.9749843652282677
22 1 1 1.0 0.22565696953712636 0.030361826092392626 0.9737335834896811
23 1 1 1.0 -0.1912392062258337 0.13305925860478304 0.9724828017510945
24 1 1 1.0 0.05226623507203472 -0.23232865508545936 0.9712320200125079
25 1 1 1.0 0.12090432761191806 0.2109941728136121 0.9699812382739212
26 1 1 1.0 -0.23637784714230556 -0.07541098037561224 0.9687304565353346
27 1 1 1.0 0.22962464816403286 -0.10609241165475883 0.967479674796748
28 1 1 1.0 -0.09948227506259276 0.2377078104900442 0.9662288930581614
29 1 1 1.0 -0.08878632566796897 -0.24684860349713889 0.9649781113195748
30 1 1 1.0 0.23624715112124614 0.12416488153174593 0.9637273295809882
31 1 1 1.0 -0.2624016936488678 0.06916824432916484 0.9624765478424016
32 1 1 1.0 0.14914283563604822 -0.23195137670764743 0.9612257661038148
33 1 1 1.0 0.04743985292467554 0.27603892795666485 0.9599749843652283
34 1 1 1.0 -0.224803941285584 -0.17410080781081397 0.9587242026266416
35 1 1 1.0 0.28753638043315943 -0.023821801366037332 0.957473420888055
36 1 1 1.0 -0.19872588991345033 0.21481686399380484 0.9562226391494684
37 1 1 1.0 0.0014473672543478258 -0.29669286590890853 0.9549718574108818
38 1 1 1.0 0.20203097609133394 0.22270966417751867 0.9537210756722951
39 1 1 1.0 -0.30333152720794837 -0.02811269776326257 0.9524702939337085
40 1 1 1.0 0.24575045147559152 -0.18651583101393104 0.9512195121951219
41 1 1 1.0 -0.05590463074492929 0.3073012909443624 0.9499687304565353
42 1 1 1.0 -0.16836930162174862 -0.26755566159551236 0.9487179487179487
43 1 1 1.0 0.3084781585126466 0.08454107414001871 0.9474671669793621
44 1 1 1.0 -0.28784418478629803 0.14771688321445176 0.9462163852407754
45 1 1 1.0 0.11372968796208724 -0.30676630563637575 0.9449656035021888
46 1 1 1.0 0.12471071824231124 0.30634877499213103 0.9437148217636022
47 1 1 1.0 -0.3020989692436733 -0.14317033925236022 0.9424640400250156
48 1 1 1.0 0.32281838304808164 -0.09952835772816693 0.941213258286429
49 1 1 1.0 -0.17255768936955224 0.2944391049461467 0.9399624765478424
50 1 1 1.0 -0.0723712745338431 -0.33702040390854937 0.9387116948092558
51 1 1 1.0 0.2837798023160379 0.20158387897393415 0.9374609130706691
52 1 1 1.0 -0.3487428064865187 0.04346314433024081 0.9362101313320825
53 1 1 1.0 0.22994127828053426 -0.2701444486759278 0.9349593495934959
54 1 1 1.0 0.013047911196219644 0.3577961183799369 0.9337085678549093
55 1 1 1.0 -0.2535866353565198 -0.25732527174688 0.9324577861163227
56 1 1 1.0 0.3640152409568518 0.018612343994461506 0.9312070043777361
57 1 1 1.0 -0.28343704759771493 0.2341898034155531 0.9299562226391495
58 1 1 1.0 0.051239712950371157 -0.36726107315975476 0.9287054409005628
59 1 1 1.0 0.21206662868920376 0.307986363651279 0.9274546591619762
60 1 1 1.0 -0.36742192509829785 -0.08454292639209665 0.9262038774233896
61 1 1 1.0 0.3306942619164942 -0.187358148791572 0.924953095684803
62 1 1 1.0 -0.11821995563827294 0.3644147051084661 0.9237023139462164
63 1 1 1.0 -0.16023263730013657 -0.3512957054557301 0.9224515322076298
64 1 1 1.0 0.3581858665153412 0.1519607263865434 0.9212007504690432
65 1 1 1.0 -0.3695421121055641 0.1308842328677933 0.9199499687304565
66 1 1 1.0 0.1854499208120398 -0.34871210287468574 0.9186991869918699
67 1 1 1.0 0.09953133338355519 0.38520376085014907 0.9174484052532833
68 1 1 1.0 -0.33600078300073627 -0.21836984335964124 0.9161976235146967
69 1 1 1.0 0.39807204796912965 -0.0664147675565062 0.9149468417761101
70 1 1 1.0 -0.2504033250470172 0.3200901196183727 0.9136960600375235
71 1 1 1.0 -0.03179575841282886 -0.4079615715443413 0.9124452782989368
72 1 1 1.0 0.3010490680051365 0.281236640734042 0.9111944965603502
73 1 1 1.0 -0.41471202451042427 -0.0040463048370264435 0.9099437148217636
74 1 1 1.0 0.31056241365907433 -0.2789769535050213 0.908692933083177
75 1 1 1.0 -0.04081626829575447 0.418189878171998 0.9074421513445904
76 1 1 1.0 -0.25400282929110085 -0.3380824815983682 0.9061913696060038
77 1 1 1.0 0.41828983997813124 0.07820576833739823 0.9049405878674172
78 1 1 1.0 -0.3635106992744933 0.22628456821402027 0.9036898061288305
79 1 1 1.0 0.11589591866538344 -0.41493607133423765 0.9024390243902439
80 1 1 1.0 0.19600769498427822 0.3865756521217649 0.9011882426516573
81 1 1 1.0 -0.40808315333028616 -0.15356010684206192 0.8999374609130707
82 1 1 1.0 0.4070232572099254 -0.1633839672812509 0.8986866791744841
83 1 1 1.0 -0.19086687659427912 0.39771679045844865 0.8974358974358975
84 1 1 1.0 -0.1286497166452776 -0.4246192280263429 0.8961851156973109
85 1 1 1.0 0.3838542446673121 0.2274828713392327 0.8949343339587242
86 1 1 1.0 -0.43915138091551925 0.09206396217407266 0.8936835522201376
87 1 1 1.0 0.2630758137283893 -0.36654449443658144 0.892432770481551
88 1 1 1.0 0.05390631209487263 0.4504317622642358 0.8911819887429644
89 1 1 1.0 -0.34586811593799804 -0.2973174955787683 0.8899312070043778
90 1 1 1.0 0.45829857699092585 -0.014474670203667859 0.8886804252657912
91 1 1 1.0 -0.32988675235461484 0.32193688575573887 0.8874296435272045
92 1 1 1.0 0.02591723406356034 -0.46261790053728385 0.8861788617886179
93 1 1 1.0 0.29489310705431027 0.36047239637844763 0.8849280800500312
94 1 1 1.0 -0.46328515835499756 -0.06694247154811982 0.8836772983114447
95 1 1 1.0 0.38877608318983975 -0.2649086634835834 0.882426516572858
96 1 1 1.0 -0.10826367345403051 0.4602263588165293 0.8811757348342715
97 1 1 1.0 -0.23218380747998224 -0.41451508593012093 0.8799249530956847
98 1 1 1.0 0.4533990675398661 0.14953590252476737 0.8786741713570982
99 1 1 1.0 -0.43742495330813264 0.19694569194003647 0.8774233896185115
100 1 1 1.0 0.1904096111734923 -0.4427931132861606 0.876172607879925
101 1 1 1.0 0.15944665648880632 0.4572620275903593 0.8749218261413383
102 1 1 1.0 -0.42843101784831056 -0.23053366157172267 0.8736710444027518
103 1 1 1.0 0.47380580015150503 -0.11996228172130347 0.8724202626641651
104 1 1 1.0 -0.2695583820563592 0.41036814467867255 0.8711694809255786
105 1 1 1.0 -0.0787892268433333 -0.4868610834090581 0.8699186991869918
106 1 1 1.0 0.3886925633863148 0.30713863378615586 0.8686679174484052
107 1 1 1.0 -0.49625997943792266 0.036242868060444015 0.8674171357098186
108 1 1 1.0 0.34293686137156093 -0.36352462964812343 0.866166353971232
109 1 1 1.0 -0.007345243155459646 0.5018636272060994 0.8649155722326454
110 1 1 1.0 -0.3350162825037773 -0.3766261012173782 0.8636647904940588
111 1 1 1.0 0.5035637121763865 0.05163008116838233 0.8624140087554721
112 1 1 1.0 -0.40789292155659224 0.30335006342160503 0.8611632270168855
113 1 1 1.0 0.09625598444282246 -0.5012837239672157 0.8599124452782989
114 1 1 1.0 0.2687378639103634 0.43644026861428464 0.8586616635397123
115 1 1 1.0 -0.4949799498419627 -0.1408596074943566 0.8574108818011257
116 1 1 1.0 0.46199019401941765 -0.2314194107908928 0.8561601000625391
117 1 1 1.0 -0.18507296197452067 0.4846421939832031 0.8549093183239524
118 1 1 1.0 -0.1916605005116783 -0.4842864394741448 0.8536585365853658
119 1 1 1.0 0.4702942147882225 0.2285265214669895 0.8524077548467792
120 1 1 1.0 -0.5030968557883316 0.14975099607413037 0.8511569731081926
121 1 1 1.0 0.2708523639116496 -0.451993874776066 0.849906191369606
122 1 1 1.0 0.10600260220932703 0.5182156346819902 0.8486554096310194
123 1 1 1.0 -0.4298330001041405 -0.31168732513203284 0.8474046278924328
124 1 1 1.0 0.5294653332409837 -0.06074643639809222 0.8461538461538461
125 1 1 1.0 -0.3506761367204921 0.40393694913500355 0.8449030644152595
126 1 1 1.0 -0.014330415137329765 -0.5366986725681655 0.8436522826766729
127 1 1 1.0 0.3744638919499477 0.3874745215403941 0.8424015009380863
128 1 1 1.0 -0.5398000939912415 -0.032883523491426654 0.8411507191994997
129 1 1 1.0 0.42175222033371323 -0.34160380515553 0.8398999374609131
130 1 1 1.0 -0.08052233841229219 0.5386870581542176 0.8386491557223265
131 1 1 1.0 -0.3055771887514879 -0.4531959233754493 0.8373983739837398
132 1 1 1.0 0.5333110744157783 0.12820492146607027 0.8361475922451532
133 1 1 1.0 -0.4815120817898478 0.26663351420323955 0.8348968105065666
134 1 1 1.0 0.17554522569991135 -0.5236584501880434 0.83364602876798
135 1 1 1.0 0.2250494151694241 0.5064295740325354 0.8323952470293934
136 1 1 1.0 -0.5097507521547624 -0.22215546019423635 0.8311444652908068
137 1 1 1.0 0.5277022041405859 -0.18112663455520536 0.8298936835522202
138 1 1 1.0 -0.2676493248993327 0.49164497369017446 0.8286429018136335
139 1 1 1.0 -0.13518974367656425 -0.5451110096506803 0.8273921200750469
140 1 1 1.0 0.4694334052388298 0.31164525848714403 0.8261413383364603
141 1 1 1.0 -0.5584663585737115 0.08758365131158181 0.8248905565978737
142 1 1 1.0 0.35376967198077014 -0.4432432068925155 0.8236397748592871
143 1 1 1.0 0.03867092226482642 0.5676098164805716 0.8223889931207005
144 1 1 1.0 -0.41323568489235524 -0.39366014090802864 0.8211382113821138
145 1 1 1.0 0.5724157665851739 0.011171073235724274 0.8198874296435272
146 1 1 1.0 -0.4309685289360252 0.37960527627218343 0.8186366479049406
147 1 1 1.0 0.0615531564667071 -0.572792767692177 0.817385866166354
148 1 1 1.0 0.34257824832108524 0.4653640163821628 0.8161350844277674
149 1 1 1.0 -0.5686846369926536 -0.1120774592828614 0.8148843026891808
150 1 1 1.0 0.4965360076572288 -0.3024111219604192 0.8136335209505942
151 1 1 1.0 -0.1623406400133365 0.5600712469235103 0.8123827392120075
152 1 1 1.0 -0.2593888304810885 -0.5241968925766249 0.8111319574734209
153 1 1 1.0 0.5469690276381359 0.21193716992296213 0.8098811757348343
154 1 1 1.0 -0.5480846375676842 0.21382262735214336 0.8086303939962476
155 1 1 1.0 0.26046266325912115 -0.5294311690471525 0.8073796122576611
156 1 1 1.0 0.16604775897224774 0.5679651840969161 0.8061288305190744
157 1 1 1.0 -0.5075475188597144 -0.30751722340490545 0.8048780487804879
158 1 1 1.0 0.5836346331306462 -0.11642092027303727 0.8036272670419011
159 1 1 1.0 -0.35270877738540907 0.4814441755672092 0.8023764853033146
160 1 1 1.0 -0.06531751298062621 -0.5949211961141958 0.8011257035647279
161 1 1 1.0 0.4512827778418056 0.3956563709293808 0.7998749218261414
162 1 1 1.0 -0.6016868947952535 0.01312872808231831 0.7986241400875547
163 1 1 1.0 0.4359933964741558 -0.4172594943511982 0.7973733583489682
164 1 1 1.0 -0.03974152438499431 0.6038289942117754 0.7961225766103814
165 1 1 1.0 -0.37960372049719104 -0.4733707269170556 0.7948717948717949
166 1 1 1.0 0.6012811552976379 0.0928798137237468 0.7936210131332082
167 1 1 1.0 -0.5074597285586434 0.3385764910486575 0.7923702313946217
168 1 1 1.0 0.14586648945337827 -0.5940142958132235 0.791119449656035
169 1 1 1.0 0.2944686200384525 0.5379551275477957 0.7898686679174484
170 1 1 1.0 -0.5820371506648756 -0.19827905800839576 0.7886178861788617
171 1 1 1.0 0.5645777052192857 -0.24759858160874468 0.7873671044402751
172 1 1 1.0 -0.2496956078239511 0.5653965251179054 0.7861163227016885
173 1 1 1.0 -0.19831014770168276 -0.5870767990026808 0.7848655409631019
174 1 1 1.0 0.5441772369121108 0.29969825483676965 0.7836147592245153
175 1 1 1.0 -0.6052325870684101 0.14696980058119644 0.7823639774859287
176 1 1 1.0 0.34787658011614614 -0.5185017458370502 0.7811131957473421
177 1 1 1.0 0.09396394012318861 0.6188581365490499 0.7798624140087554
178 1 1 1.0 -0.48852947189493506 -0.3938310312604115 0.7786116322701688
179 1 1 1.0 0.6278011970203797 -0.039695907605110575 0.7773608505315822
180 1 1 1.0 -0.4371762593473882 0.45445580575140293 0.7761100687929956
181 1 1 1.0 0.01541715065090221 -0.63194572293144 0.774859287054409
182 1 1 1.0 0.41651081772726 0.47754436361367353 0.7736085053158224
183 1 1 1.0 -0.6312131108204259 -0.07094755498952071 0.7723577235772358
184 1 1 1.0 0.5145880166544592 -0.3749576740965254 0.7711069418386491
185 1 1 1.0 -0.12646047345664707 0.6255631394264751 0.7698561601000625
186 1 1 1.0 -0.33009077190698805 -0.547983443778789 0.7686053783614759
187 1 1 1.0 0.6149946031880337 0.1815173850938693 0.7673545966228893
188 1 1 1.0 -0.577433231218564 0.28223360590866287 0.7661038148843027
189 1 1 1.0 0.23567959761669663 -0.5995456320873583 0.7648530331457161
190 1 1 1.0 0.23173638344327935 0.6026689391652705 0.7636022514071295
191 1 1 1.0 -0.5792936933379201 -0.28851179101229907 0.7623514696685428
192 1 1 1.0 0.623453497086634 -0.178973405295295 0.7611006879299562
193 1 1 1.0 -0.3395855582353485 0.5543552729964364 0.7598499061913696
194 1 1 1.0 -0.12434023251391114 -0.6395833604447958 0.758599124452783
195 1 1 1.0 0.5248852381928572 0.3884829140583762 0.7573483427141964
196 1 1 1.0 -0.6508904097852352 0.0682506610689062 0.7560975609756098
197 1 1 1.0 0.4347997432465145 -0.49107588328918983 0.7548467792370231
198 1 1 1.0 0.011133527886364307 0.657243575176768 0.7535959974984365
199 1 1 1.0 -0.4531556658786813 -0.4781491595781737 0.7523452157598499
200 1 1 1.0 0.6585501711423521 0.04657062669383875 0.7510944340212633
201 1 1 1.0 -0.5181647478170668 0.4113876411014943 0.7498436522826767
202 1 1 1.0 0.10441301369699733 -0.6547569295099288 0.7485928705440901
203 1 1 1.0 0.3660676052583137 0.5545036615571356 0.7473420888055035
204 1 1 1.0 -0.6458507200150136 -0.16194014009895125 0.7460913070669168
205 1 1 1.0 0.586849550901832 -0.3175219621300789 0.7448405253283302
206 1 1 1.0 -0.2186974149179375 0.6318589509822194 0.7435897435897436
207 1 1 1.0 -0.2661053277395452 -0.6149152951963187 0.742338961851157
208 1 1 1.0 0.6128496449816747 0.2742327878705858 0.7410881801125704
209 1 1 1.0 -0.6384455174957404 0.2121978914994484 0.7398373983739837
210 1 1 1.0 0.3281003912405725 -0.5889311869776129 0.7385866166353972
211 1 1 1.0 0.15620255376421016 0.6572188591135852 0.7373358348968104
212 1 1 1.0 -0.5602517451390733 -0.3798641554367529 0.7360850531582239
213 1 1 1.0 0.6710499944385107 -0.09854186172001057 0.7348342714196372
214 1 1 1.0 -0.42910136878560656 0.5269983671451846 0.7335834896810507
215 1 1 1.0 -0.03965476729548197 -0.6797913682214558 0.732332707942464
216 1 1 1.0 0.4893957574682535 0.475406152410865 0.7310819262038775
217 1 1 1.0 -0.6833346397016465 -0.020006767662588652 0.7298311444652907
218 1 1 1.0 0.5183928215996079 -0.4477047437352224 0.7285803627267042
219 1 1 1.0 -0.07998129234070454 0.6816118202431354 0.7273295809881175
220 1 1 1.0 -0.40222044283060354 -0.5576991058353173 0.726078799249531
221 1 1 1.0 0.6745960935745599 0.13980148627642663 0.7248280175109443
222 1 1 1.0 -0.5929892006888822 0.3532701398906994 0.7235772357723578
223 1 1 1.0 0.19899784834926448 -0.6623023102446206 0.722326454033771
224 1 1 1.0 0.30121089572930587 0.6239566259909393 0.7210756722951845
225 1 1 1.0 -0.644787150504233 -0.25710242604808997 0.7198248905565978
226 1 1 1.0 0.6503268661540343 -0.2464269005094077 0.7185741088180113
227 1 1 1.0 -0.3136525551505819 0.6221489524826157 0.7173233270794246
228 1 1 1.0 -0.18932659361474072 -0.6718597701599137 0.7160725453408381
229 1 1 1.0 0.5945272052173591 0.36819457972246566 0.7148217636022514
230 1 1 1.0 -0.6883516905631725 0.13033957166166976 0.7135709818636649
231 1 1 1.0 0.4202875223594331 -0.5621017088061 0.7123202001250781
232 1 1 1.0 0.0699133084090375 0.6996373428732913 0.7110694183864916
233 1 1 1.0 -0.5250914066479409 -0.46950667485329356 0.7098186366479049
234 1 1 1.0 0.7055913688471838 -0.008509711955436103 0.7085678549093184
235 1 1 1.0 -0.5154470799654469 0.48375289741383865 0.7073170731707317
236 1 1 1.0 0.053398453951294146 -0.7061295895364169 0.7060662914321452
237 1 1 1.0 0.43837863700697277 0.5577268757297951 0.7048155096935584
238 1 1 1.0 -0.7012099363698904 -0.11533125644759375 0.7035647279549719
239 1 1 1.0 0.595990474683733 -0.389294843320878 0.7023139462163852
240 1 1 1.0 -0.1768053588821468 0.6908330510933377 0.7010631644777987
241 1 1 1.0 -0.3368591190604245 -0.6299115516250686 0.699812382739212
242 1 1 1.0 0.6750425480128138 0.23733783512076406 0.6985616010006254
243 1 1 1.0 -0.6591958149135145 0.28145781023203403 0.6973108192620388
244 1 1 1.0 0.2964500024771105 -0.6539249346784166 0.6960600375234521
245 1 1 1.0 0.2235031201196662 0.6835835379618612 0.6948092557848655
246 1 1 1.0 -0.6276091898758159 -0.35367124262797944 0.6935584740462789
247 1 1 1.0 0.7028518293838937 -0.16343000062201418 0.6923076923076923
248 1 1 1.0 -0.40854277982742804 0.5962660005446905 0.6910569105691057
249 1 1 1.0 -0.1016928447172933 -0.7168166222690137 0.6898061288305191
250 1 1 1.0 0.5601066619928043 0.46062138593685253 0.6885553470919324
251 1 1 1.0 -0.7253343652218692 0.03876200552907816 0.6873045653533458
252 1 1 1.0 0.5094829822372177 -0.5193816484999678 0.6860537836147592
253 1 1 1.0 -0.0248798310245582 0.7283034001222102 0.6848030018761726
254 1 1 1.0 -0.4743788640854809 -0.5547261086824254 0.683552220137586
255 1 1 1.0 0.7256650140074853 0.08874139171870486 0.6823014383989994
256 1 1 1.0 -0.595975232184477 0.42542158582408496 0.6810506566604128
257 1 1 1.0 0.152326650290868 -0.7174041550391476 0.6797998749218261
258 1 1 1.0 0.37286611461766894 0.6328838666849762 0.6785490931832395
259 1 1 1.0 -0.7035498051629833 -0.2151387202930943 0.6772983114446529
260 1 1 1.0 0.665137479155094 -0.31709915074237005 0.6760475297060663
261 1 1 1.0 -0.27668377572410047 0.6841750047930495 0.6747967479674797
262 1 1 1.0 -0.2585349137734768 -0.6924561572669621 0.6735459662288931
263 1 1 1.0 0.6593965276163217 0.33647496827948786 0.6722951844903065
264 1 1 1.0 -0.7145970162814536 0.1976120286248576 0.6710444027517198
265 1 1 1.0 0.39403630994788585 -0.6293742064088494 0.6697936210131332
266 1 1 1.0 0.13479020140783265 0.7313563246866494 0.6685428392745466
267 1 1 1.0 -0.5943099135517066 -0.44890648982119663 0.66729205753596
268 1 1 1.0 0.7425713302826313 -0.07054671060007314 0.6660412757973734
269 1 1 1.0 -0.5006425943777519 0.5544462027138322 0.6647904940587868
270 1 1 1.0 -0.005372740603281094 -0.7481217707248171 0.6635397123202001
271 1 1 1.0 0.5100646209066121 0.5488237011358537 0.6622889305816135
272 1 1 1.0 -0.7479310549917793 -0.06023041385436716 0.6610381488430269
273 1 1 1.0 0.5930543164575904 -0.4614837027896117 0.6597873671044403
274 1 1 1.0 -0.12575524286051534 0.7419671048151492 0.6585365853658536
275 1 1 1.0 -0.40905666169655897 -0.6329676294027402 0.6572858036272671
276 1 1 1.0 0.7302428477785564 0.19069198547338834 0.6560350218886803
277 1 1 1.0 -0.6682285548818114 0.35316879433442316 0.6547842401500938
278 1 1 1.0 0.2545326316759052 -0.7128163565385077 0.6535334584115071
279 1 1 1.0 0.29423461846596116 0.6985365409258132 0.6522826766729206
280 1 1 1.0 -0.6897906314209302 -0.3167749304823928 0.6510318949343339
281 1 1 1.0 0.7236281166663201 -0.23269476509807846 0.6497811131957474
282 1 1 1.0 -0.3769263723690283 0.6613130264804935 0.6485303314571607
283 1 1 1.0 -0.1690126487466454 -0.7432791595892911 0.6472795497185742
284 1 1 1.0 0.6275743219532786 0.43450811427077196 0.6460287679799874
285 1 1 1.0 -0.757306862774937 0.10367094121530242 0.6447779862414009
286 1 1 1.0 0.4890588157138654 -0.5888074488636711 0.6435272045028142
287 1 1 1.0 0.03716787599875092 0.765571385146368 0.6422764227642277
288 1 1 1.0 -0.545285874342563 -0.5401383552295953 0.641025641025641
289 1 1 1.0 0.7679771702056577 0.02998658812102253 0.6397748592870545
290 1 1 1.0 -0.5873313970242975 0.49732165894958313 0.6385240775484677
291 1 1 1.0 0.09727471447604773 -0.7644739213153153 0.6372732958098812
292 1 1 1.0 0.44526319995092195 0.6302507789474721 0.6360225140712945
293 1 1 1.0 -0.7550572242687085 -0.16417501609857166 0.634771732332708
294 1 1 1.0 0.6685406941059501 -0.3894926770590886 0.6335209505941213
295 1 1 1.0 -0.23016633191627806 0.7397688106615466 0.6322701688555348
296 1 1 1.0 -0.33042321957463766 -0.7018796400013909 0.631019387116948
297 1 1 1.0 0.718696458407189 0.29473191946709354 0.6297686053783615
298 1 1 1.0 -0.7299831108122237 0.26849581616112683 0.6285178236397748
299 1 1 1.0 0.35736353178447666 -0.6919735286086153 0.6272670419011883
300 1 1 1.0 0.2041759906148951 0.752606010385551 0.6260162601626016
301 1 1 1.0 -0.659778140886653 -0.41756544610128293 0.6247654784240151
302 1 1 1.0 0.7695447656347176 -0.13795026894314436 0.6235146966854284
303 1 1 1.0 -0.4748584122752093 0.6223319921444638 0.6222639149468419
304 1 1 1.0 -0.07032246482108273 -0.7806391223378147 0.6210131332082551
305 1 1 1.0 0.5798988265993844 0.5287834893502672 0.6197623514696685
306 1 1 1.0 -0.7857736077835319 0.0018098120469072488 0.6185115697310819
307 1 1 1.0 0.5789057394334269 -0.5327825677121211 0.6172607879924953
308 1 1 1.0 -0.06706102606085994 0.7848786472944236 0.6160100062539087
309 1 1 1.0 -0.48132512536754013 -0.6248177490782745 0.6147592245153221
310 1 1 1.0 0.7779313243536455 0.1357580392869917 0.6135084427767354
311 1 1 1.0 -0.6661429496208947 0.4259038942889223 0.6122576610381488
312 1 1 1.0 0.20374801327828113 -0.764955776848416 0.6110068792995622
313 1 1 1.0 0.36692896217729576 0.7025387093980676 0.6097560975609756
314 1 1 1.0 -0.7460232247999257 -0.2705006999529099 0.608505315822389
315 1 1 1.0 0.7336991724831 -0.30484004843897783 0.6072545340838024
316 1 1 1.0 -0.33549298273349804 0.7212516278526512 0.6060037523452158
317 1 1 1.0 -0.2401031965784006 -0.7593578204873453 0.6047529706066291
318 1 1 1.0 0.6908049737230263 0.39821300369401613 0.6035021888680425
319 1 1 1.0 -0.779289736081122 0.1732072453715648 0.6022514071294559
320 1 1 1.0 0.45816421988900113 -0.654892201734978 0.6010006253908693
321 1 1 1.0 0.10466010578127179 0.7933135491701345 0.5997498436522827
322 1 1 1.0 -0.6137657684746396 -0.5148693565722872 0.5984990619136961
323 1 1 1.0 0.8012930491050634 -0.03498487221335246 0.5972482801751094
324 1 1 1.0 -0.5678742257090622 0.5677198654554374 0.5959974984365228
325 1 1 1.0 0.035284201870232915 -0.803138448883756 0.5947467166979362
326 1 1 1.0 0.5170883014748242 0.6167513791347439 0.5934959349593496
327 1 1 1.0 -0.7988072900073465 -0.10560583278225691 0.592245153220763
328 1 1 1.0 0.6611035669101639 -0.46224206504281484 0.5909943714821764
329 1 1 1.0 -0.1754359077460683 0.7883049794525323 0.5897435897435898
330 1 1 1.0 -0.4035865848484339 -0.7005669728561034 0.5884928080050031
331 1 1 1.0 0.7716849531001982 0.24423172550931682 0.5872420262664165
332 1 1 1.0 -0.7348142009106713 0.3415587086823241 0.5859912445278299
333 1 1 1.0 0.31145624317826404 -0.7490484628929585 0.5847404627892433
334 1 1 1.0 0.27662342353228186 0.7635569878278129 0.5834896810506567
335 1 1 1.0 -0.7205439879579183 -0.37658229584722724 0.5822388993120701
336 1 1 1.0 0.7865486198104569 -0.20927034169390943 0.5809881175734835
337 1 1 1.0 -0.4390967556944478 0.6863662729022069 0.5797373358348967
338 1 1 1.0 -0.1400099796765804 -0.8035860329303517 0.5784865540963102
339 1 1 1.0 0.6467549994455399 0.49850459757436755 0.5772357723577235
340 1 1 1.0 -0.8145115796140144 0.06936985841239493 0.575984990619137
341 1 1 1.0 0.5543328387618538 -0.6019931004693265 0.5747342088805503
342 1 1 1.0 -0.0021095452108444157 0.8192144460472554 0.5734834271419638
343 1 1 1.0 -0.5524047284173774 -0.606134321381636 0.572232645403377
344 1 1 1.0 0.8176317080539697 0.07387896419570791 0.5709818636647905
345 1 1 1.0 -0.6534913071904697 0.49835289275140016 0.5697310819262038
346 1 1 1.0 0.14538459232861192 -0.8097490158141841 0.5684803001876173
347 1 1 1.0 0.4402367838261601 0.6960188557549858 0.5672295184490306
348 1 1 1.0 -0.7956009006810929 -0.21607238700741815 0.5659787367104441
349 1 1 1.0 0.7333679586776919 -0.3784888030817016 0.5647279549718573
350 1 1 1.0 -0.28539239036755604 0.7752707003139838 0.5634771732332708
351 1 1 1.0 -0.3135713218332458 -0.7652284043542928 0.5622263914946841
352 1 1 1.0 0.748890101340322 0.3528030348129915 0.5609756097560976
353 1 1 1.0 -0.7913313497836486 0.24597319315396265 0.5597248280175109
354 1 1 1.0 0.4177753990673528 -0.7166383017722119 0.5584740462789244
355 1 1 1.0 0.17620604337373313 0.811451578181707 0.5572232645403377
356 1 1 1.0 -0.6787407984061906 -0.47979738113727066 0.5559724828017512
357 1 1 1.0 0.8254094235555558 -0.10480037154168076 0.5547217010631644
358 1 1 1.0 -0.538377755123061 0.6354678074069999 0.5534709193245779
359 1 1 1.0 -0.0323014868066402 -0.8330723459547732 0.5522201375859912
360 1 1 1.0 0.5871323291920613 0.5930500796177343 0.5509693558474047
361 1 1 1.0 -0.8343561438147055 -0.040734684955483456 0.549718574108818
362 1 1 1.0 0.6433764264983214 -0.5340878715705637 0.5484677923702315
363 1 1 1.0 -0.11374589280685968 0.8292257926191977 0.5472170106316447
364 1 1 1.0 -0.4767258478267393 -0.6889509002259664 0.5459662288930582
365 1 1 1.0 0.8176959020167295 0.18616791736588648 0.5447154471544715
366 1 1 1.0 -0.7294029193234756 0.4154726690491101 0.543464665415885
367 1 1 1.0 0.2574389584203837 -0.7998307865011256 0.5422138836772983
368 1 1 1.0 0.3507865524752429 0.7644002334794128 0.5409631019387118
369 1 1 1.0 -0.7757441477927026 -0.32700401922540817 0.539712320200125
370 1 1 1.0 0.7936516517229517 -0.2831540699249503 0.5384615384615384
371 1 1 1.0 -0.3943192530923631 0.7455983701040624 0.5372107567229518
372 1 1 1.0 -0.21308646251526825 -0.8169094593083666 0.5359599749843652
373 1 1 1.0 0.7096034325227752 0.45885623806410614 0.5347091932457786
374 1 1 1.0 -0.8339715033254362 0.14111574977065894 0.533458411507192
375 1 1 1.0 0.5201061459289676 -0.6680154457667865 0.5322076297686054
376 1 1 1.0 0.06779066294604538 0.8446829295939178 0.5309568480300187
377 1 1 1.0 -0.6211348235436 -0.5775837725521016 0.5297060662914321
378 1 1 1.0 0.8489375560869269 0.006327566145586748 0.5284552845528455
379 1 1 1.0 -0.6308313974903856 0.5693041016475264 0.5272045028142589
380 1 1 1.0 0.08066952827741644 -0.8466788709387716 0.5259537210756723
381 1 1 1.0 0.5129054207373943 0.6794224421000671 0.5247029393370857
382 1 1 1.0 -0.8379006460056115 -0.1546620384220217 0.5234521575984991
383 1 1 1.0 0.7229648968353886 -0.45235769142771354 0.5222013758599124
384 1 1 1.0 -0.22773258161261356 0.8226471599396012 0.5209505941213258
385 1 1 1.0 -0.38811346287788545 -0.7611044901603734 0.5196998123827392
386 1 1 1.0 0.8010130277854866 0.2993137683803835 0.5184490306441526
387 1 1 1.0 -0.7935275734422289 0.3206555184554046 0.517198248905566
388 1 1 1.0 0.36884776491757837 -0.7731426371888214 0.5159474671669794
389 1 1 1.0 0.25049322426388665 0.8199636983470111 0.5146966854283928
390 1 1 1.0 -0.7392291943939648 -0.4357906632086192 0.5134459036898061
391 1 1 1.0 0.8401878656037712 -0.17815865834012815 0.5121951219512195
392 1 1 1.0 -0.4996167567431733 0.699513386280856 0.5109443402126329
393 1 1 1.0 -0.10420255013049848 -0.8540224265183936 0.5096935584740463
394 1 1 1.0 0.6542816677218284 0.5598226880617455 0.5084427767354597
395 1 1 1.0 -0.8613386212894317 0.029190061430440443 0.5071919949968731
396 1 1 1.0 0.6159314352933855 -0.6038641865056771 0.5059412132582864
397 1 1 1.0 -0.04630355869428008 0.862057740980675 0.5046904315196998
398 1 1 1.0 -0.5486323609547195 -0.6674961060122526 0.5034396497811132
399 1 1 1.0 0.8561519029189765 0.1216974114037819 0.5021888680425266
400 1 1 1.0 -0.7141035081598439 0.4889961281277697 0.50093808630394
401 1 1 1.0 0.1964094435759249 -0.8436444322879204 0.4996873045653534
402 1 1 1.0 0.4254008831359622 0.7553774694412757 0.49843652282676676
403 1 1 1.0 -0.8246098457548239 -0.2698609663193304 0.49718574108818014
404 1 1 1.0 0.7909818784947448 -0.3583241325780916 0.49593495934959353
405 1 1 1.0 -0.3414811612537646 0.7991734360763639 0.4946841776110069
406 1 1 1.0 -0.2882718874076867 -0.8206234232388333 0.4934333958724203
407 1 1 1.0 0.7675104597524307 0.4107115393010017 0.4921826141338337
408 1 1 1.0 -0.8440540041066468 0.21577482265681888 0.49093183239524707
409 1 1 1.0 0.4770103170031421 -0.7298449329140754 0.48968105065666045
410 1 1 1.0 0.14138423334455685 0.8610728023612115 0.48843026891807384
411 1 1 1.0 -0.6864480437151028 -0.539856675934678 0.4871794871794872
412 1 1 1.0 0.8715279863339996 -0.06566781757553913 0.4859287054409006
413 1 1 1.0 -0.5987548715957245 0.6376361925236061 0.484677923702314
414 1 1 1.0 0.010794680727412983 -0.8753180412174625 0.4834271419637274
415 1 1 1.0 0.5837686741556001 0.6532381592609606 0.48217636022514077
416 1 1 1.0 -0.8723927109514202 -0.0874159358252551 0.48092557848655415
417 1 1 1.0 0.7028725056040476 -0.5252450192345322 0.4796747967479674
418 1 1 1.0 -0.16360557634133874 0.862753543749501 0.4784240150093808
419 1 1 1.0 -0.46250201447521105 -0.7472600565106285 0.4771732332707942
420 1 1 1.0 0.8464540358921301 0.23877475840108825 0.4759224515322076
421 1 1 1.0 -0.7860423333225469 0.39601042425696514 0.47467166979362097
422 1 1 1.0 0.31234074013409363 -0.8235993715427842 0.47342088805503435
423 1 1 1.0 0.32627143824809984 0.8189031318078047 0.47217010631644774
424 1 1 1.0 -0.7943457594998784 -0.3837314218352366 0.4709193245778611