# Generated using make_ls_sphere.py (uniform sphere sampling)

642 atoms
 1 atom types

-2.5 2.5 xlo xhi
-2.5 2.5 ylo yhi
-2.5 2.5 zlo zhi

Atoms

1 1 1 1.0 -1.314327780297834 2.1266270208801 0.0
2 1 1 1.0 1.314327780297834 2.1266270208801 0.0
3 1 1 1.0 -1.314327780297834 -2.1266270208801 0.0
4 1 1 1.0 1.314327780297834 -2.1266270208801 0.0
5 1 1 1.0 0.0 -1.314327780297834 2.1266270208801
6 1 1 1.0 0.0 1.314327780297834 2.1266270208801
7 1 1 1.0 0.0 -1.314327780297834 -2.1266270208801
8 1 1 1.0 0.0 1.314327780297834 -2.1266270208801
9 1 1 1.0 2.1266270208801 0.0 -1.314327780297834
10 1 1 1.0 2.1266270208801 0.0 1.314327780297834
11 1 1 1.0 -2.1266270208801 0.0 -1.314327780297834
12 1 1 1.0 -2.1266270208801 0.0 1.314327780297834
13 1 1 1.0 -2.0225424859373686 1.2500000000000002 0.7725424859373686
14 1 1 1.0 -1.2500000000000002 0.7725424859373686 2.0225424859373686
15 1 1 1.0 -0.7725424859373686 2.0225424859373686 1.2500000000000002
16 1 1 1.0 0.7725424859373686 2.0225424859373686 1.2500000000000002
17 1 1 1.0 0.0 2.5 0.0
18 1 1 1.0 0.7725424859373686 2.0225424859373686 -1.2500000000000002
19 1 1 1.0 -0.7725424859373686 2.0225424859373686 -1.2500000000000002
20 1 1 1.0 -1.2500000000000002 0.7725424859373686 -2.0225424859373686
21 1 1 1.0 -2.0225424859373686 1.2500000000000002 -0.7725424859373686
22 1 1 1.0 -2.5 0.0 0.0
23 1 1 1.0 1.2500000000000002 0.7725424859373686 2.0225424859373686
24 1 1 1.0 2.0225424859373686 1.2500000000000002 0.7725424859373686
25 1 1 1.0 -1.2500000000000002 -0.7725424859373686 2.0225424859373686
26 1 1 1.0 0.0 0.0 2.5
27 1 1 1.0 -2.0225424859373686 -1.2500000000000002 -0.7725424859373686
28 1 1 1.0 -2.0225424859373686 -1.2500000000000002 0.7725424859373686
29 1 1 1.0 0.0 0.0 -2.5
30 1 1 1.0 -1.2500000000000002 -0.7725424859373686 -2.0225424859373686
31 1 1 1.0 2.0225424859373686 1.2500000000000002 -0.7725424859373686
32 1 1 1.0 1.2500000000000002 0.7725424859373686 -2.0225424859373686
33 1 1 1.0 2.0225424859373686 -1.2500000000000002 0.7725424859373686
34 1 1 1.0 1.2500000000000002 -0.7725424859373686 2.0225424859373686
35 1 1 1.0 0.7725424859373686 -2.0225424859373686 1.2500000000000002
36 1 1 1.0 -0.7725424859373686 -2.0225424859373686 1.2500000000000002
37 1 1 1.0 0.0 -2.5 0.0
38 1 1 1.0 -0.7725424859373686 -2.0225424859373686 -1.2500000000000002
39 1 1 1.0 0.7725424859373686 -2.0225424859373686 -1.2500000000000002
40 1 1 1.0 1.2500000000000002 -0.7725424859373686 -2.0225424859373686
41 1 1 1.0 2.0225424859373686 -1.2500000000000002 -0.7725424859373686
42 1 1 1.0 2.5 0.0 0.0
43 1 1 1.0 -1.7344511939011231 1.755116111940408 0.40155508910005794
44 1 1 1.0 -1.4694631307311832 1.720477400588967 1.06331351044005
45 1 1 1.0 -1.084721411381737 2.1566712010404654 0.649729782519386
46 1 1 1.0 -1.7551161119404077 0.4015550891000579 1.734451193901123
47 1 1 1.0 -1.720477400588967 1.0633135104400502 1.469463130731183
48 1 1 1.0 -2.1566712010404654 0.6497297825193861 1.084721411381737
49 1 1 1.0 -0.4015550891000579 1.7344511939011231 1.7551161119404077
50 1 1 1.0 -1.06331351044005 1.469463130731183 1.720477400588967
51 1 1 1.0 -0.6497297825193861 1.084721411381737 2.1566712010404654
52 1 1 1.0 -0.4061496202911329 2.377641290737884 0.657163890148917
53 1 1 1.0 -0.6831663222816793 2.404845894459794 0.0
54 1 1 1.0 0.4015550891000579 1.7344511939011231 1.7551161119404077
55 1 1 1.0 0.0 2.1266270208801 1.3143277802978344
56 1 1 1.0 0.6831663222816793 2.404845894459794 0.0
57 1 1 1.0 0.4061496202911329 2.377641290737884 0.657163890148917
58 1 1 1.0 1.084721411381737 2.1566712010404654 0.649729782519386
59 1 1 1.0 -0.4061496202911329 2.377641290737884 -0.657163890148917
60 1 1 1.0 -1.084721411381737 2.1566712010404654 -0.649729782519386
61 1 1 1.0 1.084721411381737 2.1566712010404654 -0.649729782519386
62 1 1 1.0 0.4061496202911329 2.377641290737884 -0.657163890148917
63 1 1 1.0 -0.4015550891000579 1.7344511939011231 -1.7551161119404077
64 1 1 1.0 0.0 2.1266270208801 -1.3143277802978344
65 1 1 1.0 0.4015550891000579 1.7344511939011231 -1.7551161119404077
66 1 1 1.0 -1.4694631307311832 1.720477400588967 -1.06331351044005
67 1 1 1.0 -1.7344511939011231 1.755116111940408 -0.40155508910005794
68 1 1 1.0 -0.6497297825193861 1.084721411381737 -2.1566712010404654
69 1 1 1.0 -1.06331351044005 1.469463130731183 -1.720477400588967
70 1 1 1.0 -2.1566712010404654 0.6497297825193861 -1.084721411381737
71 1 1 1.0 -1.720477400588967 1.0633135104400502 -1.469463130731183
72 1 1 1.0 -1.7551161119404077 0.4015550891000579 -1.734451193901123
73 1 1 1.0 -2.1266270208800995 1.3143277802978344 0.0
74 1 1 1.0 -2.404845894459794 0.0 -0.6831663222816793
75 1 1 1.0 -2.377641290737884 0.6571638901489172 -0.40614962029113294
76 1 1 1.0 -2.377641290737884 0.6571638901489172 0.40614962029113294
77 1 1 1.0 -2.404845894459794 0.0 0.6831663222816793
78 1 1 1.0 1.4694631307311832 1.720477400588967 1.06331351044005
79 1 1 1.0 1.7344511939011231 1.755116111940408 0.40155508910005794
80 1 1 1.0 0.6497297825193861 1.084721411381737 2.1566712010404654
81 1 1 1.0 1.06331351044005 1.469463130731183 1.720477400588967
82 1 1 1.0 2.1566712010404654 0.6497297825193861 1.084721411381737
83 1 1 1.0 1.720477400588967 1.0633135104400502 1.469463130731183
84 1 1 1.0 1.7551161119404077 0.4015550891000579 1.734451193901123
85 1 1 1.0 -0.6571638901489172 0.40614962029113294 2.377641290737884
86 1 1 1.0 0.0 0.6831663222816793 2.404845894459794
87 1 1 1.0 -1.7551161119404077 -0.4015550891000579 1.734451193901123
88 1 1 1.0 -1.3143277802978344 0.0 2.1266270208800995
89 1 1 1.0 0.0 -0.6831663222816793 2.404845894459794
90 1 1 1.0 -0.6571638901489172 -0.40614962029113294 2.377641290737884
91 1 1 1.0 -0.6497297825193861 -1.084721411381737 2.1566712010404654
92 1 1 1.0 -2.377641290737884 -0.6571638901489172 0.40614962029113294
93 1 1 1.0 -2.1566712010404654 -0.6497297825193861 1.084721411381737
94 1 1 1.0 -2.1566712010404654 -0.6497297825193861 -1.084721411381737
95 1 1 1.0 -2.377641290737884 -0.6571638901489172 -0.40614962029113294
96 1 1 1.0 -1.7344511939011231 -1.755116111940408 0.40155508910005794
97 1 1 1.0 -2.1266270208800995 -1.3143277802978344 0.0
98 1 1 1.0 -1.7344511939011231 -1.755116111940408 -0.40155508910005794
99 1 1 1.0 -1.3143277802978344 0.0 -2.1266270208800995
100 1 1 1.0 -1.7551161119404077 -0.4015550891000579 -1.734451193901123
101 1 1 1.0 0.0 0.6831663222816793 -2.404845894459794
102 1 1 1.0 -0.6571638901489172 0.40614962029113294 -2.377641290737884
103 1 1 1.0 -0.6497297825193861 -1.084721411381737 -2.1566712010404654
104 1 1 1.0 -0.6571638901489172 -0.40614962029113294 -2.377641290737884
105 1 1 1.0 0.0 -0.6831663222816793 -2.404845894459794
106 1 1 1.0 1.06331351044005 1.469463130731183 -1.720477400588967
107 1 1 1.0 0.6497297825193861 1.084721411381737 -2.1566712010404654
108 1 1 1.0 1.7344511939011231 1.755116111940408 -0.40155508910005794
109 1 1 1.0 1.4694631307311832 1.720477400588967 -1.06331351044005
110 1 1 1.0 1.7551161119404077 0.4015550891000579 -1.734451193901123
111 1 1 1.0 1.720477400588967 1.0633135104400502 -1.469463130731183
112 1 1 1.0 2.1566712010404654 0.6497297825193861 -1.084721411381737
113 1 1 1.0 1.7344511939011231 -1.755116111940408 0.40155508910005794
114 1 1 1.0 1.4694631307311832 -1.720477400588967 1.06331351044005
115 1 1 1.0 1.084721411381737 -2.1566712010404654 0.649729782519386
116 1 1 1.0 1.7551161119404077 -0.4015550891000579 1.734451193901123
117 1 1 1.0 1.720477400588967 -1.0633135104400502 1.469463130731183
118 1 1 1.0 2.1566712010404654 -0.6497297825193861 1.084721411381737
119 1 1 1.0 0.4015550891000579 -1.7344511939011231 1.7551161119404077
120 1 1 1.0 1.06331351044005 -1.469463130731183 1.720477400588967
121 1 1 1.0 0.6497297825193861 -1.084721411381737 2.1566712010404654
122 1 1 1.0 0.4061496202911329 -2.377641290737884 0.657163890148917
123 1 1 1.0 0.6831663222816793 -2.404845894459794 0.0
124 1 1 1.0 -0.4015550891000579 -1.7344511939011231 1.7551161119404077
125 1 1 1.0 0.0 -2.1266270208801 1.3143277802978344
126 1 1 1.0 -0.6831663222816793 -2.404845894459794 0.0
127 1 1 1.0 -0.4061496202911329 -2.377641290737884 0.657163890148917
128 1 1 1.0 -1.084721411381737 -2.1566712010404654 0.649729782519386
129 1 1 1.0 0.4061496202911329 -2.377641290737884 -0.657163890148917
130 1 1 1.0 1.084721411381737 -2.1566712010404654 -0.649729782519386
131 1 1 1.0 -1.084721411381737 -2.1566712010404654 -0.649729782519386
132 1 1 1.0 -0.4061496202911329 -2.377641290737884 -0.657163890148917
133 1 1 1.0 0.4015550891000579 -1.7344511939011231 -1.7551161119404077
134 1 1 1.0 0.0 -2.1266270208801 -1.3143277802978344
135 1 1 1.0 -0.4015550891000579 -1.7344511939011231 -1.7551161119404077
136 1 1 1.0 1.4694631307311832 -1.720477400588967 -1.06331351044005
137 1 1 1.0 1.7344511939011231 -1.755116111940408 -0.40155508910005794
138 1 1 1.0 0.6497297825193861 -1.084721411381737 -2.1566712010404654
139 1 1 1.0 1.06331351044005 -1.469463130731183 -1.720477400588967
140 1 1 1.0 2.1566712010404654 -0.6497297825193861 -1.084721411381737
141 1 1 1.0 1.720477400588967 -1.0633135104400502 -1.469463130731183
142 1 1 1.0 1.7551161119404077 -0.4015550891000579 -1.734451193901123
143 1 1 1.0 2.1266270208800995 -1.3143277802978344 0.0
144 1 1 1.0 2.404845894459794 0.0 -0.6831663222816793
145 1 1 1.0 2.377641290737884 -0.6571638901489172 -0.40614962029113294
146 1 1 1.0 2.377641290737884 -0.6571638901489172 0.40614962029113294
147 1 1 1.0 2.404845894459794 0.0 0.6831663222816793
148 1 1 1.0 0.6571638901489172 -0.40614962029113294 2.377641290737884
149 1 1 1.0 1.3143277802978344 0.0 2.1266270208800995
150 1 1 1.0 0.6571638901489172 0.40614962029113294 2.377641290737884
151 1 1 1.0 -1.4694631307311832 -1.720477400588967 1.06331351044005
152 1 1 1.0 -1.06331351044005 -1.469463130731183 1.720477400588967
153 1 1 1.0 -1.720477400588967 -1.0633135104400502 1.469463130731183
154 1 1 1.0 -1.06331351044005 -1.469463130731183 -1.720477400588967
155 1 1 1.0 -1.4694631307311832 -1.720477400588967 -1.06331351044005
156 1 1 1.0 -1.720477400588967 -1.0633135104400502 -1.469463130731183
157 1 1 1.0 1.3143277802978344 0.0 -2.1266270208800995
158 1 1 1.0 0.6571638901489172 -0.40614962029113294 -2.377641290737884
159 1 1 1.0 0.6571638901489172 0.40614962029113294 -2.377641290737884
160 1 1 1.0 2.377641290737884 0.6571638901489172 0.40614962029113294
161 1 1 1.0 2.377641290737884 0.6571638901489172 -0.40614962029113294
162 1 1 1.0 2.1266270208800995 1.3143277802978344 0.0
163 1 1 1.0 -1.5391050521842018 1.9596076060499288 0.20271573360825884
164 1 1 1.0 -1.4281291478392717 1.9816230731482039 0.5325571641228244
165 1 1 1.0 -1.2111041051516698 2.162323339658187 0.32800094703253213
166 1 1 1.0 -1.7677669529663689 1.5037523875188643 0.9293700861504612
167 1 1 1.0 -1.6185297347055603 1.7557746168584343 0.7400114814444216
168 1 1 1.0 -1.8966307504081437 1.5170628731795357 0.59271581337644
169 1 1 1.0 -0.9375964186955241 2.1097786865559756 0.9590343317126193
170 1 1 1.0 -1.2903040501276526 1.9586292459082832 0.8653825369724801
171 1 1 1.0 -1.134976249348867 1.8948385501194416 1.171074627167386
172 1 1 1.0 -1.9596076060499286 0.20271573360825884 1.5391050521842018
173 1 1 1.0 -1.9816230731482039 0.5325571641228245 1.4281291478392717
174 1 1 1.0 -2.162323339658187 0.32800094703253224 1.2111041051516698
175 1 1 1.0 -1.5037523875188643 0.9293700861504612 1.7677669529663687
176 1 1 1.0 -1.7557746168584343 0.7400114814444219 1.6185297347055603
177 1 1 1.0 -1.5170628731795357 0.59271581337644 1.8966307504081437
178 1 1 1.0 -2.109778686555975 0.9590343317126195 0.9375964186955242
179 1 1 1.0 -1.958629245908283 0.8653825369724804 1.2903040501276528
180 1 1 1.0 -1.8948385501194416 1.1710746271673862 1.134976249348867
181 1 1 1.0 -0.20271573360825879 1.5391050521842018 1.9596076060499286
182 1 1 1.0 -0.5325571641228245 1.428129147839272 1.9816230731482039
183 1 1 1.0 -0.32800094703253224 1.2111041051516698 2.162323339658187
184 1 1 1.0 -0.9293700861504615 1.7677669529663689 1.5037523875188643
185 1 1 1.0 -0.7400114814444219 1.6185297347055603 1.7557746168584343
186 1 1 1.0 -0.59271581337644 1.8966307504081437 1.5170628731795357
187 1 1 1.0 -0.9590343317126195 0.9375964186955242 2.109778686555975
188 1 1 1.0 -0.8653825369724801 1.2903040501276528 1.958629245908283
189 1 1 1.0 -1.171074627167386 1.134976249348867 1.8948385501194411
190 1 1 1.0 -1.6164444794943291 1.4106355294144288 1.2834386030761196
191 1 1 1.0 -1.4106355294144288 1.2834386030761196 1.6164444794943291
192 1 1 1.0 -1.28343860307612 1.6164444794943291 1.4106355294144288
193 1 1 1.0 -0.8955719837164475 2.3107615015283653 0.32913842838016155
194 1 1 1.0 -1.008388371543411 2.2876085530824604 0.0
195 1 1 1.0 -0.5966923257989829 2.2275163104709197 0.9654684639689801
196 1 1 1.0 -0.75314719773308 2.2906104379780396 0.6602068766476638
197 1 1 1.0 -0.34488060531908427 2.476097204892155 0.0
198 1 1 1.0 -0.550292568683231 2.4159814935060977 0.33198119206975607
199 1 1 1.0 -0.20560616319840572 2.4692208514878446 0.3326777603514783
200 1 1 1.0 0.20271573360825879 1.5391050521842018 1.9596076060499286
201 1 1 1.0 0.0 1.7572675762194334 1.778204337405541
202 1 1 1.0 0.39108616260057716 2.100444713317847 1.2981462243204582
203 1 1 1.0 0.2028546290498491 1.950510926775317 1.5505989565336178
204 1 1 1.0 0.59271581337644 1.8966307504081437 1.5170628731795357
205 1 1 1.0 -0.2028546290498491 1.950510926775317 1.5505989565336178
206 1 1 1.0 -0.39108616260057716 2.100444713317847 1.2981462243204582
207 1 1 1.0 1.008388371543411 2.2876085530824604 0.0
208 1 1 1.0 0.8955719837164475 2.3107615015283653 0.32913842838016155
209 1 1 1.0 1.2111041051516698 2.162323339658187 0.32800094703253213
210 1 1 1.0 0.20560616319840572 2.4692208514878446 0.3326777603514783
211 1 1 1.0 0.550292568683231 2.4159814935060977 0.33198119206975607
212 1 1 1.0 0.34488060531908427 2.476097204892155 0.0
213 1 1 1.0 0.9375964186955241 2.1097786865559756 0.9590343317126193
214 1 1 1.0 0.75314719773308 2.2906104379780396 0.6602068766476638
215 1 1 1.0 0.5966923257989829 2.2275163104709197 0.9654684639689801
216 1 1 1.0 -0.2058089500799004 2.282456232330748 0.999017629254628
217 1 1 1.0 0.2058089500799004 2.282456232330748 0.999017629254628
218 1 1 1.0 0.0 2.4096531586690566 0.6660117528364184
219 1 1 1.0 -0.8955719837164475 2.3107615015283653 -0.32913842838016155
220 1 1 1.0 -1.2111041051516698 2.162323339658187 -0.32800094703253213
221 1 1 1.0 -0.20560616319840572 2.4692208514878446 -0.3326777603514783
222 1 1 1.0 -0.550292568683231 2.4159814935060977 -0.33198119206975607
223 1 1 1.0 -0.9375964186955241 2.1097786865559756 -0.9590343317126193
224 1 1 1.0 -0.75314719773308 2.2906104379780396 -0.6602068766476638
225 1 1 1.0 -0.5966923257989829 2.2275163104709197 -0.9654684639689801
226 1 1 1.0 1.2111041051516698 2.162323339658187 -0.32800094703253213
227 1 1 1.0 0.8955719837164475 2.3107615015283653 -0.32913842838016155
228 1 1 1.0 0.5966923257989829 2.2275163104709197 -0.9654684639689801
229 1 1 1.0 0.75314719773308 2.2906104379780396 -0.6602068766476638
230 1 1 1.0 0.9375964186955241 2.1097786865559756 -0.9590343317126193
231 1 1 1.0 0.550292568683231 2.4159814935060977 -0.33198119206975607
232 1 1 1.0 0.20560616319840572 2.4692208514878446 -0.3326777603514783
233 1 1 1.0 -0.20271573360825879 1.5391050521842018 -1.9596076060499286
234 1 1 1.0 0.0 1.7572675762194334 -1.778204337405541
235 1 1 1.0 0.20271573360825879 1.5391050521842018 -1.9596076060499286
236 1 1 1.0 -0.39108616260057716 2.100444713317847 -1.2981462243204582
237 1 1 1.0 -0.2028546290498491 1.950510926775317 -1.5505989565336178
238 1 1 1.0 -0.59271581337644 1.8966307504081437 -1.5170628731795357
239 1 1 1.0 0.59271581337644 1.8966307504081437 -1.5170628731795357
240 1 1 1.0 0.2028546290498491 1.950510926775317 -1.5505989565336178
241 1 1 1.0 0.39108616260057716 2.100444713317847 -1.2981462243204582
242 1 1 1.0 0.0 2.4096531586690566 -0.6660117528364184
243 1 1 1.0 0.2058089500799004 2.282456232330748 -0.999017629254628
244 1 1 1.0 -0.2058089500799004 2.282456232330748 -0.999017629254628
245 1 1 1.0 -1.4281291478392717 1.9816230731482039 -0.5325571641228244
246 1 1 1.0 -1.5391050521842018 1.9596076060499288 -0.20271573360825884
247 1 1 1.0 -1.134976249348867 1.8948385501194416 -1.171074627167386
248 1 1 1.0 -1.2903040501276526 1.9586292459082832 -0.8653825369724801
249 1 1 1.0 -1.8966307504081437 1.5170628731795357 -0.59271581337644
250 1 1 1.0 -1.6185297347055603 1.7557746168584343 -0.7400114814444216
251 1 1 1.0 -1.7677669529663689 1.5037523875188643 -0.9293700861504612
252 1 1 1.0 -0.32800094703253224 1.2111041051516698 -2.162323339658187
253 1 1 1.0 -0.5325571641228245 1.428129147839272 -1.9816230731482039
254 1 1 1.0 -1.171074627167386 1.134976249348867 -1.8948385501194411
255 1 1 1.0 -0.8653825369724801 1.2903040501276528 -1.958629245908283
256 1 1 1.0 -0.9590343317126195 0.9375964186955242 -2.109778686555975
257 1 1 1.0 -0.7400114814444219 1.6185297347055603 -1.7557746168584343
258 1 1 1.0 -0.9293700861504615 1.7677669529663689 -1.5037523875188643
259 1 1 1.0 -2.162323339658187 0.32800094703253224 -1.2111041051516698
260 1 1 1.0 -1.9816230731482039 0.5325571641228245 -1.4281291478392717
261 1 1 1.0 -1.9596076060499286 0.20271573360825884 -1.5391050521842018
262 1 1 1.0 -1.8948385501194416 1.1710746271673862 -1.134976249348867
263 1 1 1.0 -1.958629245908283 0.8653825369724804 -1.2903040501276528
264 1 1 1.0 -2.109778686555975 0.9590343317126195 -0.9375964186955242
265 1 1 1.0 -1.5170628731795357 0.59271581337644 -1.8966307504081437
266 1 1 1.0 -1.7557746168584343 0.7400114814444219 -1.6185297347055603
267 1 1 1.0 -1.5037523875188643 0.9293700861504612 -1.7677669529663687
268 1 1 1.0 -1.28343860307612 1.6164444794943291 -1.4106355294144288
269 1 1 1.0 -1.4106355294144288 1.2834386030761196 -1.6164444794943291
270 1 1 1.0 -1.6164444794943291 1.4106355294144288 -1.2834386030761196
271 1 1 1.0 -1.7572675762194332 1.778204337405541 0.0
272 1 1 1.0 -2.100444713317847 1.298146224320459 -0.39108616260057716
273 1 1 1.0 -1.950510926775317 1.5505989565336178 -0.20285462904984913
274 1 1 1.0 -1.950510926775317 1.5505989565336178 0.20285462904984913
275 1 1 1.0 -2.100444713317847 1.298146224320459 0.39108616260057716
276 1 1 1.0 -2.2876085530824604 0.0 -1.008388371543411
277 1 1 1.0 -2.3107615015283653 0.3291384283801616 -0.8955719837164475
278 1 1 1.0 -2.4692208514878446 0.33267776035147834 -0.20560616319840574
279 1 1 1.0 -2.4159814935060977 0.3319811920697562 -0.550292568683231
280 1 1 1.0 -2.476097204892155 0.0 -0.34488060531908427
281 1 1 1.0 -2.290610437978039 0.6602068766476641 -0.7531471977330801
282 1 1 1.0 -2.2275163104709197 0.9654684639689803 -0.596692325798983
283 1 1 1.0 -2.3107615015283653 0.3291384283801616 0.8955719837164475
284 1 1 1.0 -2.2876085530824604 0.0 1.008388371543411
285 1 1 1.0 -2.2275163104709197 0.9654684639689803 0.596692325798983
286 1 1 1.0 -2.290610437978039 0.6602068766476641 0.7531471977330801
287 1 1 1.0 -2.476097204892155 0.0 0.34488060531908427
288 1 1 1.0 -2.4159814935060977 0.3319811920697562 0.550292568683231
289 1 1 1.0 -2.4692208514878446 0.33267776035147834 0.20560616319840574
290 1 1 1.0 -2.282456232330748 0.999017629254628 -0.2058089500799004
291 1 1 1.0 -2.4096531586690566 0.6660117528364186 0.0
292 1 1 1.0 -2.282456232330748 0.999017629254628 0.2058089500799004
293 1 1 1.0 1.4281291478392717 1.9816230731482039 0.5325571641228244
294 1 1 1.0 1.5391050521842018 1.9596076060499288 0.20271573360825884
295 1 1 1.0 1.134976249348867 1.8948385501194416 1.171074627167386
296 1 1 1.0 1.2903040501276526 1.9586292459082832 0.8653825369724801
297 1 1 1.0 1.8966307504081437 1.5170628731795357 0.59271581337644
298 1 1 1.0 1.6185297347055603 1.7557746168584343 0.7400114814444216
299 1 1 1.0 1.7677669529663689 1.5037523875188643 0.9293700861504612
300 1 1 1.0 0.32800094703253224 1.2111041051516698 2.162323339658187
301 1 1 1.0 0.5325571641228245 1.428129147839272 1.9816230731482039
302 1 1 1.0 1.171074627167386 1.134976249348867 1.8948385501194411
303 1 1 1.0 0.8653825369724801 1.2903040501276528 1.958629245908283
304 1 1 1.0 0.9590343317126195 0.9375964186955242 2.109778686555975
305 1 1 1.0 0.7400114814444219 1.6185297347055603 1.7557746168584343
306 1 1 1.0 0.9293700861504615 1.7677669529663689 1.5037523875188643
307 1 1 1.0 2.162323339658187 0.32800094703253224 1.2111041051516698
308 1 1 1.0 1.9816230731482039 0.5325571641228245 1.4281291478392717
309 1 1 1.0 1.9596076060499286 0.20271573360825884 1.5391050521842018
310 1 1 1.0 1.8948385501194416 1.1710746271673862 1.134976249348867
311 1 1 1.0 1.958629245908283 0.8653825369724804 1.2903040501276528
312 1 1 1.0 2.109778686555975 0.9590343317126195 0.9375964186955242
313 1 1 1.0 1.5170628731795357 0.59271581337644 1.8966307504081437
314 1 1 1.0 1.7557746168584343 0.7400114814444219 1.6185297347055603
315 1 1 1.0 1.5037523875188643 0.9293700861504612 1.7677669529663687
316 1 1 1.0 1.28343860307612 1.6164444794943291 1.4106355294144288
317 1 1 1.0 1.4106355294144288 1.2834386030761196 1.6164444794943291
318 1 1 1.0 1.6164444794943291 1.4106355294144288 1.2834386030761196
319 1 1 1.0 -0.3291384283801616 0.8955719837164475 2.3107615015283653
320 1 1 1.0 0.0 1.008388371543411 2.2876085530824604
321 1 1 1.0 -0.9654684639689803 0.596692325798983 2.2275163104709197
322 1 1 1.0 -0.6602068766476641 0.7531471977330801 2.290610437978039
323 1 1 1.0 0.0 0.34488060531908427 2.476097204892155
324 1 1 1.0 -0.3319811920697562 0.550292568683231 2.4159814935060977
325 1 1 1.0 -0.33267776035147834 0.20560616319840574 2.4692208514878446
326 1 1 1.0 -1.9596076060499286 -0.20271573360825884 1.5391050521842018
327 1 1 1.0 -1.778204337405541 0.0 1.7572675762194332
328 1 1 1.0 -1.298146224320459 -0.39108616260057716 2.100444713317847
329 1 1 1.0 -1.5505989565336178 -0.20285462904984913 1.950510926775317
330 1 1 1.0 -1.5170628731795357 -0.59271581337644 1.8966307504081437
331 1 1 1.0 -1.5505989565336178 0.20285462904984913 1.950510926775317
332 1 1 1.0 -1.298146224320459 0.39108616260057716 2.100444713317847
333 1 1 1.0 0.0 -1.008388371543411 2.2876085530824604
334 1 1 1.0 -0.3291384283801616 -0.8955719837164475 2.3107615015283653
335 1 1 1.0 -0.32800094703253224 -1.2111041051516698 2.162323339658187
336 1 1 1.0 -0.33267776035147834 -0.20560616319840574 2.4692208514878446
337 1 1 1.0 -0.3319811920697562 -0.550292568683231 2.4159814935060977
338 1 1 1.0 0.0 -0.34488060531908427 2.476097204892155
339 1 1 1.0 -0.9590343317126195 -0.9375964186955242 2.109778686555975
340 1 1 1.0 -0.6602068766476641 -0.7531471977330801 2.290610437978039
341 1 1 1.0 -0.9654684639689803 -0.596692325798983 2.2275163104709197
342 1 1 1.0 -0.999017629254628 0.2058089500799004 2.282456232330748
343 1 1 1.0 -0.999017629254628 -0.2058089500799004 2.282456232330748
344 1 1 1.0 -0.6660117528364186 0.0 2.4096531586690566
345 1 1 1.0 -2.3107615015283653 -0.3291384283801616 0.8955719837164475
346 1 1 1.0 -2.162323339658187 -0.32800094703253224 1.2111041051516698
347 1 1 1.0 -2.4692208514878446 -0.33267776035147834 0.20560616319840574
348 1 1 1.0 -2.4159814935060977 -0.3319811920697562 0.550292568683231
349 1 1 1.0 -2.109778686555975 -0.9590343317126195 0.9375964186955242
350 1 1 1.0 -2.290610437978039 -0.6602068766476641 0.7531471977330801
351 1 1 1.0 -2.2275163104709197 -0.9654684639689803 0.596692325798983
352 1 1 1.0 -2.162323339658187 -0.32800094703253224 -1.2111041051516698
353 1 1 1.0 -2.3107615015283653 -0.3291384283801616 -0.8955719837164475
354 1 1 1.0 -2.2275163104709197 -0.9654684639689803 -0.596692325798983
355 1 1 1.0 -2.290610437978039 -0.6602068766476641 -0.7531471977330801
356 1 1 1.0 -2.109778686555975 -0.9590343317126195 -0.9375964186955242
357 1 1 1.0 -2.4159814935060977 -0.3319811920697562 -0.550292568683231
358 1 1 1.0 -2.4692208514878446 -0.33267776035147834 -0.20560616319840574
359 1 1 1.0 -1.5391050521842018 -1.9596076060499288 0.20271573360825884
360 1 1 1.0 -1.7572675762194332 -1.778204337405541 0.0
361 1 1 1.0 -1.5391050521842018 -1.9596076060499288 -0.20271573360825884
362 1 1 1.0 -2.100444713317847 -1.298146224320459 0.39108616260057716
363 1 1 1.0 -1.950510926775317 -1.5505989565336178 0.20285462904984913
364 1 1 1.0 -1.8966307504081437 -1.5170628731795357 0.59271581337644
365 1 1 1.0 -1.8966307504081437 -1.5170628731795357 -0.59271581337644
366 1 1 1.0 -1.950510926775317 -1.5505989565336178 -0.20285462904984913
367 1 1 1.0 -2.100444713317847 -1.298146224320459 -0.39108616260057716
368 1 1 1.0 -2.4096531586690566 -0.6660117528364186 0.0
369 1 1 1.0 -2.282456232330748 -0.999017629254628 -0.2058089500799004
370 1 1 1.0 -2.282456232330748 -0.999017629254628 0.2058089500799004
371 1 1 1.0 -1.778204337405541 0.0 -1.7572675762194332
372 1 1 1.0 -1.9596076060499286 -0.20271573360825884 -1.5391050521842018
373 1 1 1.0 -1.298146224320459 0.39108616260057716 -2.100444713317847
374 1 1 1.0 -1.5505989565336178 0.20285462904984913 -1.950510926775317
375 1 1 1.0 -1.5170628731795357 -0.59271581337644 -1.8966307504081437
376 1 1 1.0 -1.5505989565336178 -0.20285462904984913 -1.950510926775317
377 1 1 1.0 -1.298146224320459 -0.39108616260057716 -2.100444713317847
378 1 1 1.0 0.0 1.008388371543411 -2.2876085530824604
379 1 1 1.0 -0.3291384283801616 0.8955719837164475 -2.3107615015283653
380 1 1 1.0 -0.33267776035147834 0.20560616319840574 -2.4692208514878446
381 1 1 1.0 -0.3319811920697562 0.550292568683231 -2.4159814935060977
382 1 1 1.0 0.0 0.34488060531908427 -2.476097204892155
383 1 1 1.0 -0.6602068766476641 0.7531471977330801 -2.290610437978039
384 1 1 1.0 -0.9654684639689803 0.596692325798983 -2.2275163104709197
385 1 1 1.0 -0.32800094703253224 -1.2111041051516698 -2.162323339658187
386 1 1 1.0 -0.3291384283801616 -0.8955719837164475 -2.3107615015283653
387 1 1 1.0 0.0 -1.008388371543411 -2.2876085530824604
388 1 1 1.0 -0.9654684639689803 -0.596692325798983 -2.2275163104709197
389 1 1 1.0 -0.6602068766476641 -0.7531471977330801 -2.290610437978039
390 1 1 1.0 -0.9590343317126195 -0.9375964186955242 -2.109778686555975
391 1 1 1.0 0.0 -0.34488060531908427 -2.476097204892155
392 1 1 1.0 -0.3319811920697562 -0.550292568683231 -2.4159814935060977
393 1 1 1.0 -0.33267776035147834 -0.20560616319840574 -2.4692208514878446
394 1 1 1.0 -0.999017629254628 0.2058089500799004 -2.282456232330748
395 1 1 1.0 -0.6660117528364186 0.0 -2.4096531586690566
396 1 1 1.0 -0.999017629254628 -0.2058089500799004 -2.282456232330748
397 1 1 1.0 0.5325571641228245 1.428129147839272 -1.9816230731482039
398 1 1 1.0 0.32800094703253224 1.2111041051516698 -2.162323339658187
399 1 1 1.0 0.9293700861504615 1.7677669529663689 -1.5037523875188643
400 1 1 1.0 0.7400114814444219 1.6185297347055603 -1.7557746168584343
401 1 1 1.0 0.9590343317126195 0.9375964186955242 -2.109778686555975
402 1 1 1.0 0.8653825369724801 1.2903040501276528 -1.958629245908283
403 1 1 1.0 1.171074627167386 1.134976249348867 -1.8948385501194411
404 1 1 1.0 1.5391050521842018 1.9596076060499288 -0.20271573360825884
405 1 1 1.0 1.4281291478392717 1.9816230731482039 -0.5325571641228244
406 1 1 1.0 1.7677669529663689 1.5037523875188643 -0.9293700861504612
407 1 1 1.0 1.6185297347055603 1.7557746168584343 -0.7400114814444216
408 1 1 1.0 1.8966307504081437 1.5170628731795357 -0.59271581337644
409 1 1 1.0 1.2903040501276526 1.9586292459082832 -0.8653825369724801
410 1 1 1.0 1.134976249348867 1.8948385501194416 -1.171074627167386
411 1 1 1.0 1.9596076060499286 0.20271573360825884 -1.5391050521842018
412 1 1 1.0 1.9816230731482039 0.5325571641228245 -1.4281291478392717
413 1 1 1.0 2.162323339658187 0.32800094703253224 -1.2111041051516698
414 1 1 1.0 1.5037523875188643 0.9293700861504612 -1.7677669529663687
415 1 1 1.0 1.7557746168584343 0.7400114814444219 -1.6185297347055603
416 1 1 1.0 1.5170628731795357 0.59271581337644 -1.8966307504081437
417 1 1 1.0 2.109778686555975 0.9590343317126195 -0.9375964186955242
418 1 1 1.0 1.958629245908283 0.8653825369724804 -1.2903040501276528
419 1 1 1.0 1.8948385501194416 1.1710746271673862 -1.134976249348867
420 1 1 1.0 1.28343860307612 1.6164444794943291 -1.4106355294144288
421 1 1 1.0 1.6164444794943291 1.4106355294144288 -1.2834386030761196
422 1 1 1.0 1.4106355294144288 1.2834386030761196 -1.6164444794943291
423 1 1 1.0 1.5391050521842018 -1.9596076060499288 0.20271573360825884
424 1 1 1.0 1.4281291478392717 -1.9816230731482039 0.5325571641228244
425 1 1 1.0 1.2111041051516698 -2.162323339658187 0.32800094703253213
426 1 1 1.0 1.7677669529663689 -1.5037523875188643 0.9293700861504612
427 1 1 1.0 1.6185297347055603 -1.7557746168584343 0.7400114814444216
428 1 1 1.0 1.8966307504081437 -1.5170628731795357 0.59271581337644
429 1 1 1.0 0.9375964186955241 -2.1097786865559756 0.9590343317126193
430 1 1 1.0 1.2903040501276526 -1.9586292459082832 0.8653825369724801
431 1 1 1.0 1.134976249348867 -1.8948385501194416 1.171074627167386
432 1 1 1.0 1.9596076060499286 -0.20271573360825884 1.5391050521842018
433 1 1 1.0 1.9816230731482039 -0.5325571641228245 1.4281291478392717
434 1 1 1.0 2.162323339658187 -0.32800094703253224 1.2111041051516698
435 1 1 1.0 1.5037523875188643 -0.9293700861504612 1.7677669529663687
436 1 1 1.0 1.7557746168584343 -0.7400114814444219 1.6185297347055603
437 1 1 1.0 1.5170628731795357 -0.59271581337644 1.8966307504081437
438 1 1 1.0 2.109778686555975 -0.9590343317126195 0.9375964186955242
439 1 1 1.0 1.958629245908283 -0.8653825369724804 1.2903040501276528
440 1 1 1.0 1.8948385501194416 -1.1710746271673862 1.134976249348867
441 1 1 1.0 0.20271573360825879 -1.5391050521842018 1.9596076060499286
442 1 1 1.0 0.5325571641228245 -1.428129147839272 1.9816230731482039
443 1 1 1.0 0.32800094703253224 -1.2111041051516698 2.162323339658187
444 1 1 1.0 0.9293700861504615 -1.7677669529663689 1.5037523875188643
445 1 1 1.0 0.7400114814444219 -1.6185297347055603 1.7557746168584343
446 1 1 1.0 0.59271581337644 -1.8966307504081437 1.5170628731795357
447 1 1 1.0 0.9590343317126195 -0.9375964186955242 2.109778686555975
448 1 1 1.0 0.8653825369724801 -1.2903040501276528 1.958629245908283