# Generated using make_ls_sphere.py (uniform sphere sampling)

1600 atoms
 1 atom types

-2.5 2.5 xlo xhi
-2.5 2.5 ylo yhi
-2.5 2.5 zlo zhi

Atoms

1 1 1 1.0 0.0 0.0 2.5
2 1 1 1.0 -0.09217109173509444 0.08443627027059288 2.4968730456535333
3 1 1 1.0 0.015449991242074981 -0.17604468143441776 2.493746091307067
4 1 1 1.0 0.1316483911682726 0.17171201387334423 2.4906191369606003
5 1 1 1.0 -0.24594713360098203 -0.0435045848966896 2.487492182614134
6 1 1 1.0 0.23554137852052331 -0.14983214467928047 2.4843652282676674
7 1 1 1.0 -0.07936279302201164 0.2952256342397888 2.4812382739212007
8 1 1 1.0 -0.15214420652638286 -0.29294441147771827 2.4781113195747344
9 1 1 1.0 0.3313719875799931 0.12101651838866337 2.4749843652282677
10 1 1 1.0 -0.3457607687463814 0.14272501905633012 2.471857410881801
11 1 1 1.0 0.16706734580022417 -0.357013213960081 2.4687304565353347
12 1 1 1.0 0.12368767761159971 0.39433580664331935 2.465603502188868
13 1 1 1.0 -0.3733556815070221 -0.21636724893706943 2.4624765478424013
14 1 1 1.0 0.43852587465300236 -0.09640868338069161 2.459349593495935
15 1 1 1.0 -0.26789572452061733 0.38105410076942287 2.4562226391494684
16 1 1 1.0 -0.06194182736633229 -0.4780008067183678 2.453095684803002
17 1 1 1.0 0.3805258035013317 0.3207075500434284 2.4499687304565354
18 1 1 1.0 -0.5123635409316589 0.021187841006007502 2.4468417761100687
19 1 1 1.0 0.3739086044109795 -0.3720890020416069 2.4437148217636024
20 1 1 1.0 -0.02502582721833499 0.5412065866083997 2.4405878674171357
21 1 1 1.0 -0.3560315837950938 -0.42664482721938213 2.4374609130706695
22 1 1 1.0 0.5641424238428159 0.07590456523098156 2.4343339587242028
23 1 1 1.0 -0.47809801556458426 0.3326481465119576 2.431207004377736
24 1 1 1.0 0.1306655876800868 -0.5808216377136484 2.42808005003127
25 1 1 1.0 0.3022608190297952 0.5274854320340303 2.424953095684803
26 1 1 1.0 -0.5909446178557639 -0.1885274509390306 2.4218261413383364
27 1 1 1.0 0.5740616204100821 -0.26523102913689706 2.41869918699187
28 1 1 1.0 -0.2487056876564819 0.5942695262251105 2.4155722326454034
29 1 1 1.0 -0.22196581416992242 -0.6171215087428472 2.4124452782989367
30 1 1 1.0 0.5906178778031154 0.31041220382936485 2.4093183239524705
31 1 1 1.0 -0.6560042341221695 0.1729206108229121 2.4061913696060038
32 1 1 1.0 0.37285708909012055 -0.5798784417691185 2.403064415259537
33 1 1 1.0 0.11859963231168885 0.6900973198916621 2.399937460913071
34 1 1 1.0 -0.56200985321396 -0.4352520195270349 2.396810506566604
35 1 1 1.0 0.7188409510828986 -0.05955450341509333 2.3936835522201374
36 1 1 1.0 -0.4968147247836258 0.5370421599845121 2.3905565978736707
37 1 1 1.0 0.0036184181358695643 -0.7417321647722713 2.3874296435272044
38 1 1 1.0 0.5050774402283349 0.5567741604437967 2.3843026891807377
39 1 1 1.0 -0.758328818019871 -0.07028174440815643 2.3811757348342715
40 1 1 1.0 0.6143761286889788 -0.4662895775348276 2.3780487804878048
41 1 1 1.0 -0.1397615768623232 0.7682532273609061 2.374921826141338
42 1 1 1.0 -0.4209232540543716 -0.6688891539887809 2.371794871794872
43 1 1 1.0 0.7711953962816165 0.21135268535004678 2.368667917448405
44 1 1 1.0 -0.7196104619657451 0.3692922080361294 2.365540963101939
45 1 1 1.0 0.2843242199052181 -0.7669157640909394 2.362414008755472
46 1 1 1.0 0.3117767956057781 0.7658719374803276 2.3592870544090054
47 1 1 1.0 -0.7552474231091832 -0.35792584813090056 2.356160100062539
48 1 1 1.0 0.807045957620204 -0.24882089432041732 2.3530331457160725
49 1 1 1.0 -0.43139422342388056 0.7360977623653668 2.3499061913696058
50 1 1 1.0 -0.18092818633460772 -0.8425510097713734 2.3467792370231395
51 1 1 1.0 0.7094495057900947 0.5039596974348354 2.343652282676673
52 1 1 1.0 -0.8718570162162966 0.10865786082560203 2.340525328330206
53 1 1 1.0 0.5748531957013356 -0.6753611216898194 2.33739837398374
54 1 1 1.0 0.03261977799054911 0.8944902959498423 2.334271419637273
55 1 1 1.0 -0.6339665883912995 -0.6433131793672 2.331144465290807
56 1 1 1.0 0.9100381023921295 0.046530859986153764 2.32801751094434
57 1 1 1.0 -0.7085926189942873 0.5854745085388827 2.3248905565978735
58 1 1 1.0 0.12809928237592788 -0.9181526828993869 2.321763602251407
59 1 1 1.0 0.5301665717230094 0.7699659091281975 2.3186366479049405
60 1 1 1.0 -0.9185548127457446 -0.21135731598024163 2.3155096935584742
61 1 1 1.0 0.8267356547912355 -0.46839537197893 2.3123827392120075
62 1 1 1.0 -0.29554988909568236 0.9110367627711652 2.309255784865541
63 1 1 1.0 -0.40058159325034143 -0.8782392636393253 2.3061288305190746
64 1 1 1.0 0.895464666288353 0.3799018159663585 2.303001876172608
65 1 1 1.0 -0.9238552802639102 0.32721058216948323 2.299874921826141
66 1 1 1.0 0.4636248020300995 -0.8717802571867144 2.296747967479675
67 1 1 1.0 0.24882833345888797 0.9630094021253727 2.293621013133208
68 1 1 1.0 -0.8400019575018407 -0.5459246083991031 2.2904940587867415
69 1 1 1.0 0.9951801199228241 -0.1660369188912655 2.2873671044402752
70 1 1 1.0 -0.626008312617543 0.8002252990459318 2.2842401500938085
71 1 1 1.0 -0.07948939603207215 -1.0199039288608533 2.2811131957473423
72 1 1 1.0 0.7526226700128412 0.703091601835105 2.2779862414008756
73 1 1 1.0 -1.0367800612760607 -0.010115762092566108 2.274859287054409
74 1 1 1.0 0.7764060341476858 -0.6974423837625532 2.2717323327079426
75 1 1 1.0 -0.10204067073938618 1.045474695429995 2.268605378361476
76 1 1 1.0 -0.6350070732277522 -0.8452062039959205 2.2654784240150097
77 1 1 1.0 1.0457245999453282 0.19551442084349557 2.262351469668543
78 1 1 1.0 -0.9087767481862332 0.5657114205350506 2.2592245153220762
79 1 1 1.0 0.2897397966634586 -1.0373401783355942 2.25609756097561
80 1 1 1.0 0.49001923746069553 0.9664391303044123 2.2529706066291433
81 1 1 1.0 -1.0202078833257153 -0.3839002671051548 2.2498436522826766
82 1 1 1.0 1.0175581430248135 -0.40845991820312727 2.2467166979362103
83 1 1 1.0 -0.4771671914856978 0.9942919761461216 2.2435897435897436
84 1 1 1.0 -0.321624291613194 -1.0615480700658573 2.240462789243277
85 1 1 1.0 0.9596356116682803 0.5687071783480817 2.2373358348968106
86 1 1 1.0 -1.097878452288798 0.23015990543518164 2.234208880550344
87 1 1 1.0 0.6576895343209732 -0.9163612360914536 2.2310819262038777
88 1 1 1.0 0.13476578023718158 1.1260794056605896 2.227954971857411
89 1 1 1.0 -0.8646702898449952 -0.7432937389469207 2.2248280175109443
90 1 1 1.0 1.1457464424773147 -0.036186675509169645 2.221701063164478
91 1 1 1.0 -0.824716880886537 0.8048422143893472 2.2185741088180113
92 1 1 1.0 0.06479308515890085 -1.1565447513432097 2.215447154471545
93 1 1 1.0 0.7372327676357757 0.901180990946119 2.212320200125078
94 1 1 1.0 -1.158212895887494 -0.16735617887029955 2.2091932457786116
95 1 1 1.0 0.9719402079745993 -0.6622716587089584 2.206066291432145
96 1 1 1.0 -0.2706591836350763 1.1505658970413233 2.2029393370856787
97 1 1 1.0 -0.5804595186999556 -1.0362877148253022 2.199812382739212
98 1 1 1.0 1.1334976688496652 0.3738397563119184 2.1966854283927457
99 1 1 1.0 -1.0935623832703316 0.4923642298500912 2.193558474046279
100 1 1 1.0 0.4760240279337308 -1.1069827832154016 2.1904315196998123
101 1 1 1.0 0.3986166412220158 1.1431550689758982 2.1873045653533456
102 1 1 1.0 -1.0710775446207763 -0.5763341539293066 2.1841776110068793
103 1 1 1.0 1.1845145003787625 -0.2999057043032587 2.1810506566604126
104 1 1 1.0 -0.673895955140898 1.0259203616966814 2.1779237023139464
105 1 1 1.0 -0.19697306710833323 -1.2171527085226452 2.1747967479674797
106 1 1 1.0 0.971731408465787 0.7678465844653897 2.171669793621013
107 1 1 1.0 -1.2406499485948066 0.09060717015111004 2.1685428392745463
108 1 1 1.0 0.8573421534289023 -0.9088115741203086 2.16541588492808
109 1 1 1.0 -0.018363107888649113 1.2546590680152487 2.1622889305816133
110 1 1 1.0 -0.8375407062594432 -0.9415652530434455 2.159161976235147
111 1 1 1.0 1.2589092804409663 0.1290752029209558 2.1560350218886803
112 1 1 1.0 -1.0197323038914805 0.7583751585540126 2.1529080675422136
113 1 1 1.0 0.24063996110705616 -1.2532093099180392 2.1497811131957474
114 1 1 1.0 0.6718446597759086 1.0911006715357117 2.1466541588492807
115 1 1 1.0 -1.2374498746049067 -0.35214901873589155 2.1435272045028144
116 1 1 1.0 1.154975485048544 -0.5785485269772319 2.1404002501563477
117 1 1 1.0 -0.46268240493630164 1.2116054849580076 2.137273295809881
118 1 1 1.0 -0.4791512512791957 -1.210716098685362 2.1341463414634148
119 1 1 1.0 1.1757355369705562 0.5713163036674738 2.131019387116948
120 1 1 1.0 -1.257742139470829 0.3743774901853259 2.1278924327704813
121 1 1 1.0 0.6771309097791239 -1.129984686940165 2.124765478424015
122 1 1 1.0 0.26500650552331756 1.2955390867049754 2.1216385240775484
123 1 1 1.0 -1.0745825002603513 -0.7792183128300821 2.1185115697310817
124 1 1 1.0 1.3236633331024592 -0.15186609099523055 2.1153846153846154
125 1 1 1.0 -0.8766903418012302 1.0098423728375088 2.1122576610381487
126 1 1 1.0 -0.035826037843324415 -1.3417466814204138 2.1091307066916825
127 1 1 1.0 0.9361597298748693 0.9686863038509852 2.1060037523452158
128 1 1 1.0 -1.3495002349781038 -0.08220880872856663 2.102876797998749
129 1 1 1.0 1.0543805508342832 -0.854009512888825 2.099749843652283
130 1 1 1.0 -0.20130584603073046 1.346717645385544 2.096622889305816
131 1 1 1.0 -0.7639429718787198 -1.1329898084386232 2.09349593495935
132 1 1 1.0 1.3332776860394457 0.3205123036651757 2.090368980612883
133 1 1 1.0 -1.2037802044746195 0.6665837855080989 2.0872420262664164
134 1 1 1.0 0.4388630642497784 -1.3091461254701084 2.08411507191995
135 1 1 1.0 0.5626235379235602 1.2660739350813386 2.0809881175734835
136 1 1 1.0 -1.274376880386906 -0.5553886504855908 2.0778611632270167
137 1 1 1.0 1.3192555103514647 -0.4528165863880134 2.0747342088805505
138 1 1 1.0 -0.6691233122483318 1.2291124342254363 2.071607254534084
139 1 1 1.0 -0.3379743591914106 -1.3627775241267006 2.068480300187617
140 1 1 1.0 1.1735835130970744 0.7791131462178601 2.065353345841151
141 1 1 1.0 -1.3961658964342787 0.21895912827895453 2.062226391494684
142 1 1 1.0 0.8844241799519253 -1.1081080172312887 2.059099437148218
143 1 1 1.0 0.09667730566206606 1.419024541201429 2.055972482801751
144 1 1 1.0 -1.0330892122308881 -0.9841503522700716 2.0528455284552845
145 1 1 1.0 1.4310394164629348 0.027927683089310686 2.049718574108818
146 1 1 1.0 -1.077421322340063 0.9490131906804586 2.0465916197623515
147 1 1 1.0 0.15388289116676776 -1.4319819192304426 2.0434646654158852
148 1 1 1.0 0.8564456208027131 1.163410040955407 2.0403377110694185
149 1 1 1.0 -1.421711592481634 -0.28019364820715353 2.037210756722952
150 1 1 1.0 1.241340019143072 -0.756027804901048 2.0340838023764856
151 1 1 1.0 -0.40585160003334125 1.4001781173087757 2.030956848030019
152 1 1 1.0 -0.6484720762027213 -1.3104922314415623 2.027829893683552
153 1 1 1.0 1.3674225690953399 0.5298429248074054 2.024702939337086
154 1 1 1.0 -1.3702115939192105 0.5345565683803584 2.021575984990619
155 1 1 1.0 0.6511566581478029 -1.3235779226178812 2.0184490306441525
156 1 1 1.0 0.4151193974306194 1.4199129602422902 2.015322076297686
157 1 1 1.0 -1.268868797149286 -0.7687930585122636 2.0121951219512195
158 1 1 1.0 1.4590865828266155 -0.2910523006825932 2.009068167604753
159 1 1 1.0 -0.8817719434635227 1.203610438918023 2.0059412132582866
160 1 1 1.0 -0.16329378245156553 -1.4873029902854895 2.00281425891182
161 1 1 1.0 1.128206944604514 0.9891409273234519 1.9996873045653536
162 1 1 1.0 -1.5042172369881337 0.03282182020579577 1.9965603502188867
163 1 1 1.0 1.0899834911853894 -1.0431487358779954 1.9934333958724204
164 1 1 1.0 -0.09935381096248577 1.5095724855294383 1.9903064415259535
165 1 1 1.0 -0.9490093012429777 -1.183426817292639 1.9871794871794872
166 1 1 1.0 1.5032028882440949 0.23219953430936702 1.9840525328330205
167 1 1 1.0 -1.2686493213966086 0.8464412276216438 1.9809255784865543
168 1 1 1.0 0.3646662236334457 -1.4850357395330587 1.9777986241400876
169 1 1 1.0 0.7361715500961312 1.3448878188694893 1.9746716697936209
170 1 1 1.0 -1.4550928766621891 -0.4956976450209894 1.9715447154471544
171 1 1 1.0 1.4114442630482142 -0.6189964540218617 1.968417761100688
172 1 1 1.0 -0.6242390195598777 1.4134913127947635 1.9652908067542212
173 1 1 1.0 -0.4957753692542069 -1.467691997506702 1.9621638524077547
174 1 1 1.0 1.360443092280277 0.7492456370919242 1.9590368980612882
175 1 1 1.0 -1.5130814676710251 0.3674245014529911 1.9559099437148217
176 1 1 1.0 0.8696914502903653 -1.2962543645926257 1.9527829893683553
177 1 1 1.0 0.2349098503079715 1.5471453413726246 1.9496560350218886
178 1 1 1.0 -1.2213236797373377 -0.9845775781510289 1.946529080675422
179 1 1 1.0 1.5695029925509494 -0.09923976901277644 1.9434021263289556
180 1 1 1.0 -1.0929406483684705 1.1361395143785074 1.9402751719824889
181 1 1 1.0 0.03854287662725552 -1.5798643073286 1.9371482176360224
182 1 1 1.0 1.04127704431815 1.1938609090341838 1.934021263289556
183 1 1 1.0 -1.5780327770510647 -0.17736888747380178 1.9308943089430894
184 1 1 1.0 1.2864700416361479 -0.9373941852413136 1.927767354596623
185 1 1 1.0 -0.31615118364161765 1.563907848566188 1.9246404002501563
186 1 1 1.0 -0.8252269297674701 -1.3699586094469727 1.9215134459036898
187 1 1 1.0 1.5374865079700841 0.45379346273467325 1.9183864915572233
188 1 1 1.0 -1.44358307804641 0.7055840147716572 1.9152595372107566
189 1 1 1.0 0.5891989940417416 -1.498864080218396 1.91213258286429
190 1 1 1.0 0.5793409586081983 1.5066723479131763 1.9090056285178236
191 1 1 1.0 -1.4482342333448004 -0.7212794775307476 1.9058786741713571
192 1 1 1.0 1.558633742716585 -0.44743351323823755 1.9027517198248907
193 1 1 1.0 -0.8489638955883712 1.385888182491091 1.899624765478424
194 1 1 1.0 -0.3108505812847779 -1.5989584011119895 1.8964978111319575
195 1 1 1.0 1.312213095482143 0.9712072851459406 1.893370856785491
196 1 1 1.0 -1.6272260244630878 0.1706266526722655 1.8902439024390243
197 1 1 1.0 1.0869993581162862 -1.2276897082229745 1.8871169480925578
198 1 1 1.0 0.027833819715910767 1.64310893794192 1.8839899937460913
199 1 1 1.0 -1.1328891646967032 -1.1953728989454344 1.8808630393996248
200 1 1 1.0 1.6463754278558804 0.11642656673459686 1.8777360850531584
201 1 1 1.0 -1.2954118695426668 1.0284691027537356 1.8746091307066917
202 1 1 1.0 0.26103253424249334 -1.636892323774822 1.8714821763602252
203 1 1 1.0 0.9151690131457844 1.386259153892839 1.8683552220137587
204 1 1 1.0 -1.6146268000375341 -0.40485035024737814 1.865228267667292
205 1 1 1.0 1.46712387725458 -0.7938049053251972 1.8621013133208255
206 1 1 1.0 -0.5467435372948438 1.5796473774555486 1.858974358974359
207 1 1 1.0 -0.6652633193488631 -1.5372882379907968 1.8558474046278925
208 1 1 1.0 1.532124112454187 0.6855819696764645 1.852720450281426
209 1 1 1.0 -1.596113793739351 0.530494728748621 1.8495934959349591
210 1 1 1.0 0.8202509781014312 -1.4723279674440324 1.8464665415884929
211 1 1 1.0 0.39050638441052543 1.643047147783963 1.843339587242026
212 1 1 1.0 -1.4006293628476831 -0.9496603885918822 1.8402126328955597
213 1 1 1.0 1.6776249860962766 -0.24635465430002643 1.837085678549093
214 1 1 1.0 -1.0727534219640165 1.3174959178629613 1.8339587242026267
215 1 1 1.0 -0.09913691823870494 -1.6994784205536395 1.83083176985616
216 1 1 1.0 1.2234893936706337 1.1885153810271625 1.8277048155096938
217 1 1 1.0 -1.7083365992541164 -0.050016919156471634 1.8245778611632268
218 1 1 1.0 1.2959820539990197 -1.119261859338056 1.8214509068167606
219 1 1 1.0 -0.19995323085176137 1.7040295506078385 1.8183239524702937
220 1 1 1.0 -1.0055511070765089 -1.3942477645882934 1.8151969981238274
221 1 1 1.0 1.6864902339363996 0.3495037156910666 1.8120700437773607
222 1 1 1.0 -1.4824730017222054 0.8831753497267485 1.8089430894308944
223 1 1 1.0 0.4974946208731612 -1.6557557756115515 1.8058161350844277
224 1 1 1.0 0.7530272393232647 1.5598915649773482 1.8026891807379615
225 1 1 1.0 -1.6119678762605825 -0.6427560651202249 1.7995622263914945
226 1 1 1.0 1.625817165385086 -0.6160672512735192 1.7964352720450283
227 1 1 1.0 -0.7841313878764546 1.5553723812065392 1.7933083176985614
228 1 1 1.0 -0.4733164840368518 -1.6796494253997842 1.790181363352095
229 1 1 1.0 1.4863180130433977 0.9204864493061642 1.7870544090056284
230 1 1 1.0 -1.7208792264079311 0.3258489291541744 1.7839274546591621
231 1 1 1.0 1.0507188058985828 -1.40525427201525 1.7808005003126954
232 1 1 1.0 0.17478327102259378 1.7490933571832281 1.7776735459662292
233 1 1 1.0 -1.3127285166198521 -1.173766687133234 1.7745465916197622
234 1 1 1.0 1.7639784221179595 -0.021274279888590257 1.771419637273296
235 1 1 1.0 -1.2886176999136172 1.2093822435345967 1.768292682926829
236 1 1 1.0 0.13349613487823536 -1.7653239738410422 1.7651657285803628
237 1 1 1.0 1.0959465925174319 1.3943171893244877 1.762038774233896
238 1 1 1.0 -1.753024840924726 -0.28832814111898436 1.7589118198874298
239 1 1 1.0 1.4899761867093324 -0.973237108302195 1.7557848655409631
240 1 1 1.0 -0.442013397205367 1.7270826277333442 1.7526579111944969
241 1 1 1.0 -0.8421477976510612 -1.5747788790626716 1.74953095684803
242 1 1 1.0 1.6876063700320345 0.5933445878019101 1.7464040025015635
243 1 1 1.0 -1.6479895372837863 0.7036445255800851 1.7432770481550968
244 1 1 1.0 0.7411250061927763 -1.6348123366960414 1.7401500938086303
245 1 1 1.0 0.5587578002991654 1.708958844904653 1.7370231394621638
246 1 1 1.0 -1.5690229746895399 -0.8841781065699486 1.7338961851156973
247 1 1 1.0 1.7571295734597343 -0.40857500155503546 1.7307692307692308
248 1 1 1.0 -1.0213569495685701 1.4906650013617262 1.7276422764227641
249 1 1 1.0 -0.25423211179323324 -1.7920415556725342 1.7245153220762977
250 1 1 1.0 1.4002666549820109 1.1515534648421313 1.7213883677298312
251 1 1 1.0 -1.8133359130546731 0.0969050138226954 1.7182614133833645
252 1 1 1.0 1.273707455593044 -1.2984541212499194 1.715134459036898
253 1 1 1.0 -0.062199577561395505 1.8207585003055256 1.7120075046904315
254 1 1 1.0 -1.1859471602137024 -1.3868152717060636 1.708880550343965
255 1 1 1.0 1.8141625350187132 0.22185347929676216 1.7057535959974985
256 1 1 1.0 -1.4899380804611926 1.0635539645602123 1.7026266416510318
257 1 1 1.0 0.38081662572717 -1.7935103875978688 1.6994996873045654
258 1 1 1.0 0.9321652865441723 1.5822096667124406 1.6963727329580989
259 1 1 1.0 -1.758874512907458 -0.5378468007327357 1.6932457786116322
260 1 1 1.0 1.662843697887735 -0.7927478768559251 1.6901188242651657
261 1 1 1.0 -0.6917094393102512 1.7104375119826236 1.6869918699186992
262 1 1 1.0 -0.6463372844336921 -1.7311403931674052 1.6838649155722327
263 1 1 1.0 1.6484913190408044 0.8411874206987197 1.6807379612257662
264 1 1 1.0 -1.7864925407036338 0.494030071562144 1.6776110068792995
265 1 1 1.0 0.9850907748697146 -1.5734355160221236 1.674484052532833
266 1 1 1.0 0.3369755035195816 1.8283908117166234 1.6713570981863666
267 1 1 1.0 -1.4857747838792665 -1.1222662245529915 1.6682301438398999
268 1 1 1.0 1.8564283257065783 -0.17636677650018284 1.6651031894934334
269 1 1 1.0 -1.2516064859443798 1.3861155067845803 1.661976235146967
270 1 1 1.0 -0.013431851508202735 -1.8703044268120428 1.6588492808005004
271 1 1 1.0 1.2751615522665303 1.3720592528396343 1.655722326454034
272 1 1 1.0 -1.8698276374794482 -0.1505760346359179 1.6525953721075672
273 1 1 1.0 1.482635791143976 -1.1537092569740293 1.6494684177611008
274 1 1 1.0 -0.31438810715128834 1.854917762037873 1.6463414634146338
275 1 1 1.0 -1.0226416542413974 -1.5824190735068506 1.6432145090681676
276 1 1 1.0 1.825607119446391 0.47672996368347087 1.6400875547217009
277 1 1 1.0 -1.6705713872045287 0.882921985836058 1.6369606003752346
278 1 1 1.0 0.6363315791897629 -1.7820408913462693 1.633833646028768
279 1 1 1.0 0.7355865461649029 1.746341352314533 1.6307066916823016
280 1 1 1.0 -1.7244765785523255 -0.791937326205982 1.6275797373358347
281 1 1 1.0 1.8090702916658001 -0.5817369127451961 1.6244527829893685
282 1 1 1.0 -0.9423159309225708 1.6532825662012338 1.6213258286429015
283 1 1 1.0 -0.4225316218666135 -1.858197898973228 1.6181988742964353
284 1 1 1.0 1.5689358048831963 1.08627028567693 1.6150719199499686
285 1 1 1.0 -1.8932671569373425 0.25917735303825606 1.6119449656035023
286 1 1 1.0 1.2226470392846636 -1.4720186221591778 1.6088180112570356
287 1 1 1.0 0.0929196899968773 1.91392846286592 1.6056910569105693
288 1 1 1.0 -1.3632146858564076 -1.3503458880739883 1.6025641025641024
289 1 1 1.0 1.9199429255141442 0.07496647030255632 1.5994371482176362
290 1 1 1.0 -1.4683284925607438 1.243304147373958 1.5963101938711692
291 1 1 1.0 0.24318678619011933 -1.9111848032882883 1.593183239524703
292 1 1 1.0 1.113157999877305 1.5756269473686801 1.5900562851782363
293 1 1 1.0 -1.8876430606717711 -0.41043754024642914 1.58692933083177
294 1 1 1.0 1.6713517352648752 -0.9737316926477214 1.5838023764853033
295 1 1 1.0 -0.5754158297906952 1.8494220266538666 1.580675422138837
296 1 1 1.0 -0.8260580489365942 -1.7546991000034773 1.5775484677923701
297 1 1 1.0 1.7967411460179725 0.7368297986677339 1.5744215134459039
298 1 1 1.0 -1.8249577770305592 0.6712395404028171 1.571294559099437
299 1 1 1.0 0.8934088294611917 -1.7299338215215383 1.5681676047529707
300 1 1 1.0 0.5104399765372378 1.8815150259638775 1.565040650406504
301 1 1 1.0 -1.6494453522166324 -1.0439136152532074 1.5619136960600377
302 1 1 1.0 1.923861914086794 -0.3448756723578609 1.558786741713571
303 1 1 1.0 -1.1871460306880233 1.5558299803611595 1.5556597873671048
304 1 1 1.0 -0.17580616205270683 -1.951597805844537 1.5525328330206378
305 1 1 1.0 1.449747066498461 1.321958723375668 1.5494058786741713
306 1 1 1.0 -1.9644340194588297 0.004524530117268122 1.5462789243277046
307 1 1 1.0 1.4472643485835675 -1.3319564192803026 1.5431519699812382
308 1 1 1.0 -0.16765256515214985 1.9621966182360588 1.5400250156347717
309 1 1 1.0 -1.2033128134188504 -1.562044372695686 1.5368980612883052
310 1 1 1.0 1.9448283108841138 0.33939509821747926 1.5337711069418387
311 1 1 1.0 -1.6653573740522367 1.0647597357223058 1.530644152595372
312 1 1 1.0 0.5093700331957028 -1.91238944212104 1.5275171982489055
313 1 1 1.0 0.9173224054432394 1.756346773495169 1.524390243902439
314 1 1 1.0 -1.865058061999814 -0.6762517498822747 1.5212632895559723
315 1 1 1.0 1.83424793120775 -0.7621001210974445 1.5181363352095059
316 1 1 1.0 -0.8387324568337451 1.803129069631628 1.5150093808630394
317 1 1 1.0 -0.6002579914460014 -1.8983945512183633 1.511882426516573
318 1 1 1.0 1.7270124343075657 0.9955325092350403 1.5087554721701064
319 1 1 1.0 -1.9482243402028048 0.43301811342891194 1.5056285178236397
320 1 1 1.0 1.145410549722503 -1.6372305043374449 1.5025015634771732
321 1 1 1.0 0.26165026445317946 1.9832838729253364 1.4993746091307067
322 1 1 1.0 -1.5344144211865989 -1.287173391430718 1.49624765478424
323 1 1 1.0 2.0032326227626585 -0.08746218053338115 1.4931207004377736
324 1 1 1.0 -1.4196855642726556 1.4192996636385935 1.489993746091307
325 1 1 1.0 0.08821050467558228 -2.00784612220939 1.4868667917448406
326 1 1 1.0 1.2927207536870604 1.5418784478368597 1.4837398373983741
327 1 1 1.0 -1.9970182250183663 -0.26401458195564226 1.4806128830519074
328 1 1 1.0 1.6527589172754098 -1.1556051626070372 1.477485928705441
329 1 1 1.0 -0.43858976936517075 1.9707624486313309 1.4743589743589745
330 1 1 1.0 -1.0089664621210848 -1.7514174321402585 1.4712320200125077
331 1 1 1.0 1.9292123827504957 0.610579313773292 1.4681050656660413
332 1 1 1.0 -1.8370355022766782 0.8538967717058101 1.4649781113195748
333 1 1 1.0 0.77864060794566 -1.872621157232396 1.4618511569731083
334 1 1 1.0 0.6915585588307047 1.9088924695695322 1.4587242026266418
335 1 1 1.0 -1.8013599698947957 -0.941455739618068 1.4555972482801751
336 1 1 1.0 1.9663715495261422 -0.5231758542347735 1.4524702939337086
337 1 1 1.0 -1.0977418892361195 1.7159156822555173 1.4493433395872417
338 1 1 1.0 -0.350024949191451 -2.0089650823258793 1.4462163852407754
339 1 1 1.0 1.61688749861385 1.246261493935919 1.4430894308943087
340 1 1 1.0 -2.036278949035036 0.17342464603098734 1.4399624765478425
341 1 1 1.0 1.3858320969046345 -1.5049827511733163 1.4368355222013758
342 1 1 1.0 -0.005273863027111039 2.0480361151181383 1.4337085678549095
343 1 1 1.0 -1.3810118210434434 -1.51533580345409 1.4305816135084426
344 1 1 1.0 2.044079270134924 0.1846974104892698 1.4274546591619763
345 1 1 1.0 -1.6337282679761742 1.2458822318785003 1.4243277048155094
346 1 1 1.0 0.3634614808215298 -2.0243725395354604 1.4212007504690432
347 1 1 1.0 1.1005919595654003 1.7400471393874644 1.4180737961225764
348 1 1 1.0 -1.9890022517027321 -0.5401809675185454 1.4149468417761102
349 1 1 1.0 1.8334198966942297 -0.9462220077042539 1.4118198874296435
350 1 1 1.0 -0.71348097591889 1.9381767507849594 1.4086929330831772
351 1 1 1.0 -0.7839283045831146 -1.913071010885732 1.4055659787367103
352 1 1 1.0 1.872225253350805 0.8820075870324788 1.402439024390244
353 1 1 1.0 -1.9783283744591216 0.6149329828849066 1.3993120700437771
354 1 1 1.0 1.044438497668382 -1.7915957544305297 1.3961851156973109
355 1 1 1.0 0.44051510843433284 2.0286289454542676 1.3930581613508441
356 1 1 1.0 -1.6968519960154764 -1.1994934528431767 1.3899312070043779
357 1 1 1.0 2.0635235588888894 -0.2620009288542019 1.3868042526579112
358 1 1 1.0 -1.3459443878076525 1.5886695185175 1.383677298311445
359 1 1 1.0 -0.0807537170166005 -2.082680864886933 1.380550343964978
360 1 1 1.0 1.467830822980153 1.4826251990443358 1.3774233896185117
361 1 1 1.0 -2.0858903595367635 -0.10183671238870864 1.3742964352720448
362 1 1 1.0 1.6084410662458035 -1.3352196789264092 1.3711694809255786
363 1 1 1.0 -0.2843647320171492 2.0730644815479944 1.3680425265791119
364 1 1 1.0 -1.1918146195668484 -1.722377250564916 1.3649155722326456
365 1 1 1.0 2.044239755041824 0.4654197934147162 1.3617886178861789
366 1 1 1.0 -1.8235072983086889 1.0386816726227752 1.3586616635397126
367 1 1 1.0 0.6435973960509593 -1.999576966252814 1.3555347091932457
368 1 1 1.0 0.8769663811881072 1.911000583698532 1.3524077548467794
369 1 1 1.0 -1.9393603694817565 -0.8175100480635205 1.3492808005003125
370 1 1 1.0 1.9841291293073793 -0.7078851748123758 1.346153846153846
371 1 1 1.0 -0.9857981327309078 1.863995925260156 1.3430268918073796
372 1 1 1.0 -0.5327161562881706 -2.0422736482709163 1.339899937460913
373 1 1 1.0 1.7740085813069382 1.1471405951602653 1.3367729831144466
374 1 1 1.0 -2.0849287583135907 0.3527893744266474 1.3336460287679799
375 1 1 1.0 1.3002653648224192 -1.6700386144169663 1.3305190744215134
376 1 1 1.0 0.16947665736511347 2.1117073239847945 1.327392120075047
377 1 1 1.0 -1.552837058859 -1.443959431380254 1.3242651657285802
378 1 1 1.0 2.122343890217317 0.01581891536396687 1.3211382113821137
379 1 1 1.0 -1.577078493725964 1.4232602541188162 1.3180112570356473
380 1 1 1.0 0.20167382069354112 -2.116697177346929 1.3148843026891808
381 1 1 1.0 1.2822635518434857 1.6985561052501676 1.3117573483427143
382 1 1 1.0 -2.0947516150140286 -0.3866550960550542 1.3086303939962476
383 1 1 1.0 1.8074122420884713 -1.1308942285692838 1.305503439649781
384 1 1 1.0 -0.569331454031534 2.056617899849003 1.3023764853033146
385 1 1 1.0 -0.9702836571947137 -1.9027612254009334 1.299249530956848
386 1 1 1.0 2.0025325694637166 0.7482844209509587 1.2961225766103814
387 1 1 1.0 -1.9838189336055723 0.8016387961385114 1.292995622263915
388 1 1 1.0 0.9221194122939459 -1.9328565929720534 1.2898686679174485
389 1 1 1.0 0.6262330606597166 2.0499092458675277 1.286741713570982
390 1 1 1.0 -1.848072985984912 -1.089476658021548 1.2836147592245153
391 1 1 1.0 2.1004696640094283 -0.44539664585032035 1.2804878048780488
392 1 1 1.0 -1.2490418918579334 1.74878346570214 1.2773608505315823
393 1 1 1.0 -0.2605063753262462 -2.135056066295984 1.2742338961851156
394 1 1 1.0 1.6357041693045709 1.3995567201543637 1.2711069418386491
395 1 1 1.0 -2.1533465532235794 0.07297515357610111 1.2679799874921827
396 1 1 1.0 1.5398285882334637 -1.5096604662641928 1.2648530331457162
397 1 1 1.0 -0.1157588967357002 2.1551443524516873 1.2617260787992497
398 1 1 1.0 -1.3715809023867986 -1.6687402650306316 1.258599124452783
399 1 1 1.0 2.140379757297441 0.30424352850945474 1.2554721701063165
400 1 1 1.0 -1.7852587703996097 1.2224903203194244 1.25234521575985
401 1 1 1.0 0.4910236089398123 -2.109111080719801 1.2492182614133833
402 1 1 1.0 1.0635022078399055 1.8884436736031893 1.2460913070669168
403 1 1 1.0 -2.06152461438706 -0.6746524157983259 1.2429643527204504
404 1 1 1.0 1.977454696236862 -0.895810331445229 1.2398373983739839
405 1 1 1.0 -0.8537029031344114 1.9979335901909099 1.2367104440275174
406 1 1 1.0 -0.7206797185192169 -2.051558558097083 1.2335834896810507
407 1 1 1.0 1.9187761493810767 1.0267788482525042 1.2304565353345842
408 1 1 1.0 -2.110135010266617 0.5394370566420472 1.2273295809881177
409 1 1 1.0 1.1925257925078552 -1.8246123322851884 1.224202626641651
410 1 1 1.0 0.35346058336139213 2.1526820059030287 1.2210756722951845
411 1 1 1.0 -1.7161201092877572 -1.349641689836695 1.217948717948718
412 1 1 1.0 2.178819965834999 -0.16416954393884783 1.2148217636022516
413 1 1 1.0 -1.4968871789893112 1.5940904813090153 1.211694809255785
414 1 1 1.0 0.02698670181853246 -2.1882951030436564 1.2085678549093184
415 1 1 1.0 1.459421685389 1.6330953981524017 1.205440900562852
416 1 1 1.0 -2.1809817773785505 -0.21853983956313774 1.2023139462163854
417 1 1 1.0 1.757181264010119 -1.3131125480863304 1.1991869918699185
418 1 1 1.0 -0.40901394085334686 2.1568838593737523 1.196060037523452
419 1 1 1.0 -1.1562550361880277 -1.8681501412765713 1.1929330831769855
420 1 1 1.0 2.1161350897303253 0.5969368960027206 1.189806128830519
421 1 1 1.0 -1.9651058333063673 0.9900260606424128 1.1866791744840524
422 1 1 1.0 0.7808518503352341 -2.0589984288569605 1.1835522201375859
423 1 1 1.0 0.8156785956202496 2.047257829519512 1.1804252657911194
424 1 1 1.0 -1.985864398749696 -0.9593285545880915 1.1772983114446527
425 1 1 1.0 2.1139277510235353 -0.6345321801317734 1.1741713570981862
426 1 1 1.0 -1.1309745406412623 1.8972484273824433 1.1710444027517197
427 1 1 1.0 -0.4479628746345976 -2.164554941936025 1.1679174484052532
428 1 1 1.0 1.7937872136105868 1.2944460348880735 1.1647904940587868
429 1 1 1.0 -2.198701160457697 0.25739274951913244 1.16166353971232
430 1 1 1.0 1.4484585233867164 -1.6762341382984665 1.1585365853658536