ITEM: TIMESTEP
0
ITEM: NUMBER OF ATOMS
144
ITEM: BOX BOUNDS pp pp pp
-1.0000000000000000e+01 1.0000000000000000e+01
-1.0000000000000000e+01 1.0000000000000000e+01
-5.0000000000000000e-01 5.0000000000000000e-01
ITEM: ATOMS id type mol x y vx vy fx fy
37 1 2 -6.56964 -6.91308 0.05 0.02 0 0
38 1 2 -6.17681 -6.91308 0.05 0.02 0 0
39 1 2 -5.78397 -6.91308 0.05 0.02 0 0
40 1 2 -5.39113 -6.91308 0.05 0.02 0 0
41 1 2 -4.9983 -6.91308 0.05 0.02 0 0
42 1 2 -4.60546 -6.91308 0.05 0.02 0 0
43 1 2 -4.21262 -6.91308 0.05 0.02 0 0
44 1 2 -3.81978 -6.91308 0.05 0.02 0 0
45 1 2 -3.42695 -6.91308 0.05 0.02 0 0
46 1 2 -3.03411 -6.91308 0.05 0.02 0 0
71 1 2 -6.56964 -6.1274 0.05 0.02 0 0
72 1 2 -6.56964 -6.52024 0.05 0.02 0 0
47 1 2 -3.03411 -6.52024 0.05 0.02 0 0
48 1 2 -3.03411 -6.1274 0.05 0.02 0 0
69 1 2 -6.56964 -5.34173 0.05 0.02 0 0
70 1 2 -6.56964 -5.73457 0.05 0.02 0 0
49 1 2 -3.03411 -5.73457 0.05 0.02 0 0
50 1 2 -3.03411 -5.34173 0.05 0.02 0 0
68 1 2 -6.56964 -4.94889 0.05 0.02 0 0
51 1 2 -3.03411 -4.94889 0.05 0.02 0 0
66 1 2 -6.56964 -4.16322 0.05 0.02 0 0
67 1 2 -6.56964 -4.55606 0.05 0.02 0 0
52 1 2 -3.03411 -4.55606 0.05 0.02 0 0
53 1 2 -3.03411 -4.16322 0.05 0.02 0 0
63 1 2 -6.17681 -3.37754 0.05 0.02 0 0
64 1 2 -6.56964 -3.37754 0.05 0.02 0 0
65 1 2 -6.56964 -3.77038 0.05 0.02 0 0
61 1 2 -5.39113 -3.37754 0.05 0.02 0 0
62 1 2 -5.78397 -3.37754 0.05 0.02 0 0
60 1 2 -4.9983 -3.37754 0.05 0.02 0 0
58 1 2 -4.21262 -3.37754 0.05 0.02 0 0
59 1 2 -4.60546 -3.37754 0.05 0.02 0 0
56 1 2 -3.42695 -3.37754 0.05 0.02 0 0
57 1 2 -3.81978 -3.37754 0.05 0.02 0 0
54 1 2 -3.03411 -3.77038 0.05 0.02 0 0
55 1 2 -3.03411 -3.37754 0.05 0.02 0 0
5 1 1 -9.98995 -1.62498 0.01 0.03 0 0
6 1 1 -9.59711 -1.62498 0.01 0.03 0 0
7 1 1 -9.20427 -1.62498 0.01 0.03 0 0
8 1 1 -8.81144 -1.62498 0.01 0.03 0 0
9 1 1 -8.4186 -1.62498 0.01 0.03 0 0
10 1 1 -8.02576 -1.62498 0.01 0.03 0 0
1 1 1 8.4387 -1.62498 0.01 0.03 0 0
2 1 1 8.83154 -1.62498 0.01 0.03 0 0
3 1 1 9.22438 -1.62498 0.01 0.03 0 0
4 1 1 9.61721 -1.62498 0.01 0.03 0 0
11 1 1 -8.02576 -1.23214 0.01 0.03 0 0
12 1 1 -8.02576 -0.839305 0.01 0.03 0 0
35 1 1 8.4387 -0.839305 0.01 0.03 0 0
36 1 1 8.4387 -1.23214 0.01 0.03 0 0
13 1 1 -8.02576 -0.446468 0.01 0.03 0 0
14 1 1 -8.02576 -0.0536306 0.01 0.03 0 0
33 1 1 8.4387 -0.0536306 0.01 0.03 0 0
34 1 1 8.4387 -0.446468 0.01 0.03 0 0
15 1 1 -8.02576 0.339207 0.01 0.03 0 0
32 1 1 8.4387 0.339207 0.01 0.03 0 0
16 1 1 -8.02576 0.732044 0.01 0.03 0 0
17 1 1 -8.02576 1.12488 0.01 0.03 0 0
73 1 3 3.54089 0.813331 0 0 0 0
74 1 3 3.93373 0.813331 0 0 0 0
108 1 3 3.54089 1.20617 0 0 0 0
75 1 3 4.32656 0.813331 0 0 0 0
76 1 3 4.7194 0.813331 0 0 0 0
77 1 3 5.11224 0.813331 0 0 0 0
78 1 3 5.50507 0.813331 0 0 0 0
79 1 3 5.89791 0.813331 0 0 0 0
80 1 3 6.29075 0.813331 0 0 0 0
81 1 3 6.68359 0.813331 0 0 0 0
82 1 3 7.07642 0.813331 0 0 0 0
83 1 3 7.07642 1.20617 0 0 0 0
30 1 1 8.4387 1.12488 0.01 0.03 0 0
31 1 1 8.4387 0.732044 0.01 0.03 0 0
23 1 1 -9.59711 1.91055 0.01 0.03 0 0
24 1 1 -9.98995 1.91055 0.01 0.03 0 0
21 1 1 -8.81144 1.91055 0.01 0.03 0 0
22 1 1 -9.20427 1.91055 0.01 0.03 0 0
18 1 1 -8.02576 1.51772 0.01 0.03 0 0
19 1 1 -8.02576 1.91055 0.01 0.03 0 0
20 1 1 -8.4186 1.91055 0.01 0.03 0 0
106 1 3 3.54089 1.99184 0 0 0 0
107 1 3 3.54089 1.59901 0 0 0 0
84 1 3 7.07642 1.59901 0 0 0 0
85 1 3 7.07642 1.99184 0 0 0 0
28 1 1 8.4387 1.91055 0.01 0.03 0 0
29 1 1 8.4387 1.51772 0.01 0.03 0 0
26 1 1 9.22438 1.91055 0.01 0.03 0 0
27 1 1 8.83154 1.91055 0.01 0.03 0 0
25 1 1 9.61721 1.91055 0.01 0.03 0 0
105 1 3 3.54089 2.38468 0 0 0 0
86 1 3 7.07642 2.38468 0 0 0 0
103 1 3 3.54089 3.17035 0 0 0 0
104 1 3 3.54089 2.77752 0 0 0 0
87 1 3 7.07642 2.77752 0 0 0 0
88 1 3 7.07642 3.17035 0 0 0 0
101 1 3 3.54089 3.95603 0 0 0 0
102 1 3 3.54089 3.56319 0 0 0 0
89 1 3 7.07642 3.56319 0 0 0 0
90 1 3 7.07642 3.95603 0 0 0 0
109 1 4 -9.61891 4.08665 0 0 0 0
144 1 4 -9.61891 4.47948 0 0 0 0
110 1 4 -9.22607 4.08665 0 0 0 0
111 1 4 -8.83323 4.08665 0 0 0 0
112 1 4 -8.4404 4.08665 0 0 0 0
113 1 4 -8.04756 4.08665 0 0 0 0
114 1 4 -7.65472 4.08665 0 0 0 0
115 1 4 -7.26189 4.08665 0 0 0 0
116 1 4 -6.86905 4.08665 0 0 0 0
117 1 4 -6.47621 4.08665 0 0 0 0
118 1 4 -6.08338 4.08665 0 0 0 0
119 1 4 -6.08338 4.47948 0 0 0 0
99 1 3 3.93373 4.34887 0 0 0 0
100 1 3 3.54089 4.34887 0 0 0 0
98 1 3 4.32656 4.34887 0 0 0 0
96 1 3 5.11224 4.34887 0 0 0 0
97 1 3 4.7194 4.34887 0 0 0 0
94 1 3 5.89791 4.34887 0 0 0 0
95 1 3 5.50507 4.34887 0 0 0 0
93 1 3 6.29075 4.34887 0 0 0 0
91 1 3 7.07642 4.34887 0 0 0 0
92 1 3 6.68359 4.34887 0 0 0 0
142 1 4 -9.61891 5.26516 0 0 0 0
143 1 4 -9.61891 4.87232 0 0 0 0
120 1 4 -6.08338 4.87232 0 0 0 0
121 1 4 -6.08338 5.26516 0 0 0 0
141 1 4 -9.61891 5.65799 0 0 0 0
122 1 4 -6.08338 5.65799 0 0 0 0
139 1 4 -9.61891 6.44367 0 0 0 0
140 1 4 -9.61891 6.05083 0 0 0 0
123 1 4 -6.08338 6.05083 0 0 0 0
124 1 4 -6.08338 6.44367 0 0 0 0
137 1 4 -9.61891 7.22934 0 0 0 0
138 1 4 -9.61891 6.83651 0 0 0 0
125 1 4 -6.08338 6.83651 0 0 0 0
126 1 4 -6.08338 7.22934 0 0 0 0
136 1 4 -9.61891 7.62218 0 0 0 0
134 1 4 -8.83323 7.62218 0 0 0 0
135 1 4 -9.22607 7.62218 0 0 0 0
132 1 4 -8.04756 7.62218 0 0 0 0
133 1 4 -8.4404 7.62218 0 0 0 0
131 1 4 -7.65472 7.62218 0 0 0 0
129 1 4 -6.86905 7.62218 0 0 0 0
130 1 4 -7.26189 7.62218 0 0 0 0
127 1 4 -6.08338 7.62218 0 0 0 0
128 1 4 -6.47621 7.62218 0 0 0 0
ITEM: TIMESTEP
100
ITEM: NUMBER OF ATOMS
144
ITEM: BOX BOUNDS pp pp pp
-1.0000000000000000e+01 1.0000000000000000e+01
-1.0000000000000000e+01 1.0000000000000000e+01
-5.0000000000000000e-01 5.0000000000000000e-01
ITEM: ATOMS id type mol x y vx vy fx fy
37 1 2 -6.06964 -6.71308 0.05 0.02 0 0
38 1 2 -5.67681 -6.71308 0.05 0.02 0 0
39 1 2 -5.28397 -6.71308 0.05 0.02 0 0
40 1 2 -4.89113 -6.71308 0.05 0.02 0 0
41 1 2 -4.4983 -6.71308 0.05 0.02 0 0
42 1 2 -4.10546 -6.71308 0.05 0.02 0 0
43 1 2 -3.71262 -6.71308 0.05 0.02 0 0
44 1 2 -3.31978 -6.71308 0.05 0.02 0 0
45 1 2 -2.92695 -6.71308 0.05 0.02 0 0
46 1 2 -2.53411 -6.71308 0.05 0.02 0 0
71 1 2 -6.06964 -5.9274 0.05 0.02 0 0
72 1 2 -6.06964 -6.32024 0.05 0.02 0 0
47 1 2 -2.53411 -6.32024 0.05 0.02 0 0
48 1 2 -2.53411 -5.9274 0.05 0.02 0 0
69 1 2 -6.06964 -5.14173 0.05 0.02 0 0
70 1 2 -6.06964 -5.53457 0.05 0.02 0 0
49 1 2 -2.53411 -5.53457 0.05 0.02 0 0
50 1 2 -2.53411 -5.14173 0.05 0.02 0 0
68 1 2 -6.06964 -4.74889 0.05 0.02 0 0
51 1 2 -2.53411 -4.74889 0.05 0.02 0 0
66 1 2 -6.06964 -3.96322 0.05 0.02 0 0
67 1 2 -6.06964 -4.35606 0.05 0.02 0 0
52 1 2 -2.53411 -4.35606 0.05 0.02 0 0
53 1 2 -2.53411 -3.96322 0.05 0.02 0 0
63 1 2 -5.67681 -3.17754 0.05 0.02 0 0
64 1 2 -6.06964 -3.17754 0.05 0.02 0 0
65 1 2 -6.06964 -3.57038 0.05 0.02 0 0
61 1 2 -4.89113 -3.17754 0.05 0.02 0 0
62 1 2 -5.28397 -3.17754 0.05 0.02 0 0
60 1 2 -4.4983 -3.17754 0.05 0.02 0 0
58 1 2 -3.71262 -3.17754 0.05 0.02 0 0
59 1 2 -4.10546 -3.17754 0.05 0.02 0 0
56 1 2 -2.92695 -3.17754 0.05 0.02 0 0
57 1 2 -3.31978 -3.17754 0.05 0.02 0 0
54 1 2 -2.53411 -3.57038 0.05 0.02 0 0
55 1 2 -2.53411 -3.17754 0.05 0.02 0 0
5 1 1 -9.88995 -1.32498 0.01 0.03 0 0
6 1 1 -9.49711 -1.32498 0.01 0.03 0 0
7 1 1 -9.10427 -1.32498 0.01 0.03 0 0
8 1 1 -8.71144 -1.32498 0.01 0.03 0 0
9 1 1 -8.3186 -1.32498 0.01 0.03 0 0
10 1 1 -7.92576 -1.32498 0.01 0.03 0 0
1 1 1 8.5387 -1.32498 0.01 0.03 0 0
2 1 1 8.93154 -1.32498 0.01 0.03 0 0
3 1 1 9.32438 -1.32498 0.01 0.03 0 0
4 1 1 9.71721 -1.32498 0.01 0.03 0 0
11 1 1 -7.92576 -0.932142 0.01 0.03 0 0
12 1 1 -7.92576 -0.539305 0.01 0.03 0 0
35 1 1 8.5387 -0.539305 0.01 0.03 0 0
36 1 1 8.5387 -0.932142 0.01 0.03 0 0
13 1 1 -7.92576 -0.146468 0.01 0.03 0 0
14 1 1 -7.92576 0.246369 0.01 0.03 0 0
33 1 1 8.5387 0.246369 0.01 0.03 0 0
34 1 1 8.5387 -0.146468 0.01 0.03 0 0
15 1 1 -7.92576 0.639207 0.01 0.03 0 0
32 1 1 8.5387 0.639207 0.01 0.03 0 0
16 1 1 -7.92576 1.03204 0.01 0.03 0 0
17 1 1 -7.92576 1.42488 0.01 0.03 0 0
73 1 3 3.54089 0.813331 0 0 0 0
74 1 3 3.93373 0.813331 0 0 0 0
108 1 3 3.54089 1.20617 0 0 0 0
75 1 3 4.32656 0.813331 0 0 0 0
76 1 3 4.7194 0.813331 0 0 0 0
77 1 3 5.11224 0.813331 0 0 0 0
78 1 3 5.50507 0.813331 0 0 0 0
79 1 3 5.89791 0.813331 0 0 0 0
80 1 3 6.29075 0.813331 0 0 0 0
81 1 3 6.68359 0.813331 0 0 0 0
82 1 3 7.07642 0.813331 0 0 0 0
83 1 3 7.07642 1.20617 0 0 0 0
30 1 1 8.5387 1.42488 0.01 0.03 0 0
31 1 1 8.5387 1.03204 0.01 0.03 0 0
23 1 1 -9.49711 2.21055 0.01 0.03 0 0
24 1 1 -9.88995 2.21055 0.01 0.03 0 0
21 1 1 -8.71144 2.21055 0.01 0.03 0 0
22 1 1 -9.10427 2.21055 0.01 0.03 0 0
18 1 1 -7.92576 1.81772 0.01 0.03 0 0
19 1 1 -7.92576 2.21055 0.01 0.03 0 0
20 1 1 -8.3186 2.21055 0.01 0.03 0 0
106 1 3 3.54089 1.99184 0 0 0 0
107 1 3 3.54089 1.59901 0 0 0 0
84 1 3 7.07642 1.59901 0 0 0 0
85 1 3 7.07642 1.99184 0 0 0 0
28 1 1 8.5387 2.21055 0.01 0.03 0 0
29 1 1 8.5387 1.81772 0.01 0.03 0 0
26 1 1 9.32438 2.21055 0.01 0.03 0 0
27 1 1 8.93154 2.21055 0.01 0.03 0 0
25 1 1 9.71721 2.21055 0.01 0.03 0 0
105 1 3 3.54089 2.38468 0 0 0 0
86 1 3 7.07642 2.38468 0 0 0 0
103 1 3 3.54089 3.17035 0 0 0 0
104 1 3 3.54089 2.77752 0 0 0 0
87 1 3 7.07642 2.77752 0 0 0 0
88 1 3 7.07642 3.17035 0 0 0 0
101 1 3 3.54089 3.95603 0 0 0 0
102 1 3 3.54089 3.56319 0 0 0 0
89 1 3 7.07642 3.56319 0 0 0 0
90 1 3 7.07642 3.95603 0 0 0 0
109 1 4 -9.61891 4.08665 0 0 0 0
144 1 4 -9.61891 4.47948 0 0 0 0
110 1 4 -9.22607 4.08665 0 0 0 0
111 1 4 -8.83323 4.08665 0 0 0 0
112 1 4 -8.4404 4.08665 0 0 0 0
113 1 4 -8.04756 4.08665 0 0 0 0
114 1 4 -7.65472 4.08665 0 0 0 0
115 1 4 -7.26189 4.08665 0 0 0 0
116 1 4 -6.86905 4.08665 0 0 0 0
117 1 4 -6.47621 4.08665 0 0 0 0
118 1 4 -6.08338 4.08665 0 0 0 0
119 1 4 -6.08338 4.47948 0 0 0 0
99 1 3 3.93373 4.34887 0 0 0 0
100 1 3 3.54089 4.34887 0 0 0 0
98 1 3 4.32656 4.34887 0 0 0 0
96 1 3 5.11224 4.34887 0 0 0 0
97 1 3 4.7194 4.34887 0 0 0 0
94 1 3 5.89791 4.34887 0 0 0 0
95 1 3 5.50507 4.34887 0 0 0 0
93 1 3 6.29075 4.34887 0 0 0 0
91 1 3 7.07642 4.34887 0 0 0 0
92 1 3 6.68359 4.34887 0 0 0 0
142 1 4 -9.61891 5.26516 0 0 0 0
143 1 4 -9.61891 4.87232 0 0 0 0
120 1 4 -6.08338 4.87232 0 0 0 0
121 1 4 -6.08338 5.26516 0 0 0 0
141 1 4 -9.61891 5.65799 0 0 0 0
122 1 4 -6.08338 5.65799 0 0 0 0
139 1 4 -9.61891 6.44367 0 0 0 0
140 1 4 -9.61891 6.05083 0 0 0 0
123 1 4 -6.08338 6.05083 0 0 0 0
124 1 4 -6.08338 6.44367 0 0 0 0
137 1 4 -9.61891 7.22934 0 0 0 0
138 1 4 -9.61891 6.83651 0 0 0 0
125 1 4 -6.08338 6.83651 0 0 0 0
126 1 4 -6.08338 7.22934 0 0 0 0
136 1 4 -9.61891 7.62218 0 0 0 0
134 1 4 -8.83323 7.62218 0 0 0 0
135 1 4 -9.22607 7.62218 0 0 0 0
132 1 4 -8.04756 7.62218 0 0 0 0
133 1 4 -8.4404 7.62218 0 0 0 0
131 1 4 -7.65472 7.62218 0 0 0 0
129 1 4 -6.86905 7.62218 0 0 0 0
130 1 4 -7.26189 7.62218 0 0 0 0
127 1 4 -6.08338 7.62218 0 0 0 0
128 1 4 -6.47621 7.62218 0 0 0 0
ITEM: TIMESTEP
200
ITEM: NUMBER OF ATOMS
144
ITEM: BOX BOUNDS pp pp pp
-1.0000000000000000e+01 1.0000000000000000e+01
-1.0000000000000000e+01 1.0000000000000000e+01
-5.0000000000000000e-01 5.0000000000000000e-01
ITEM: ATOMS id type mol x y vx vy fx fy
37 1 2 -5.56964 -6.51308 0.05 0.02 0 0
38 1 2 -5.17681 -6.51308 0.05 0.02 0 0
39 1 2 -4.78397 -6.51308 0.05 0.02 0 0
40 1 2 -4.39113 -6.51308 0.05 0.02 0 0
41 1 2 -3.9983 -6.51308 0.05 0.02 0 0
42 1 2 -3.60546 -6.51308 0.05 0.02 0 0
43 1 2 -3.21262 -6.51308 0.05 0.02 0 0
44 1 2 -2.81978 -6.51308 0.05 0.02 0 0
45 1 2 -2.42695 -6.51308 0.05 0.02 0 0
46 1 2 -2.03411 -6.51308 0.05 0.02 0 0
71 1 2 -5.56964 -5.7274 0.05 0.02 0 0
72 1 2 -5.56964 -6.12024 0.05 0.02 0 0
47 1 2 -2.03411 -6.12024 0.05 0.02 0 0
48 1 2 -2.03411 -5.7274 0.05 0.02 0 0
69 1 2 -5.56964 -4.94173 0.05 0.02 0 0
70 1 2 -5.56964 -5.33457 0.05 0.02 0 0
49 1 2 -2.03411 -5.33457 0.05 0.02 0 0
50 1 2 -2.03411 -4.94173 0.05 0.02 0 0
68 1 2 -5.56964 -4.54889 0.05 0.02 0 0
51 1 2 -2.03411 -4.54889 0.05 0.02 0 0
66 1 2 -5.56964 -3.76322 0.05 0.02 0 0
67 1 2 -5.56964 -4.15606 0.05 0.02 0 0
52 1 2 -2.03411 -4.15606 0.05 0.02 0 0
53 1 2 -2.03411 -3.76322 0.05 0.02 0 0
63 1 2 -5.17681 -2.97754 0.05 0.02 0 0
64 1 2 -5.56964 -2.97754 0.05 0.02 0 0
65 1 2 -5.56964 -3.37038 0.05 0.02 0 0
61 1 2 -4.39113 -2.97754 0.05 0.02 0 0
62 1 2 -4.78397 -2.97754 0.05 0.02 0 0
60 1 2 -3.9983 -2.97754 0.05 0.02 0 0
58 1 2 -3.21262 -2.97754 0.05 0.02 0 0
59 1 2 -3.60546 -2.97754 0.05 0.02 0 0
56 1 2 -2.42695 -2.97754 0.05 0.02 0 0
57 1 2 -2.81978 -2.97754 0.05 0.02 0 0
54 1 2 -2.03411 -3.37038 0.05 0.02 0 0
55 1 2 -2.03411 -2.97754 0.05 0.02 0 0
5 1 1 -9.78995 -1.02498 0.01 0.03 0 0
6 1 1 -9.39711 -1.02498 0.01 0.03 0 0
7 1 1 -9.00427 -1.02498 0.01 0.03 0 0
8 1 1 -8.61144 -1.02498 0.01 0.03 0 0
9 1 1 -8.2186 -1.02498 0.01 0.03 0 0
10 1 1 -7.82576 -1.02498 0.01 0.03 0 0
1 1 1 8.6387 -1.02498 0.01 0.03 0 0
2 1 1 9.03154 -1.02498 0.01 0.03 0 0
3 1 1 9.42438 -1.02498 0.01 0.03 0 0
4 1 1 9.81721 -1.02498 0.01 0.03 0 0
11 1 1 -7.82576 -0.632142 0.01 0.03 0 0
12 1 1 -7.82576 -0.239305 0.01 0.03 0 0
35 1 1 8.6387 -0.239305 0.01 0.03 0 0
36 1 1 8.6387 -0.632142 0.01 0.03 0 0
13 1 1 -7.82576 0.153532 0.01 0.03 0 0
14 1 1 -7.82576 0.546369 0.01 0.03 0 0
33 1 1 8.6387 0.546369 0.01 0.03 0 0
34 1 1 8.6387 0.153532 0.01 0.03 0 0
15 1 1 -7.82576 0.939207 0.01 0.03 0 0
32 1 1 8.6387 0.939207 0.01 0.03 0 0
16 1 1 -7.82576 1.33204 0.01 0.03 0 0
17 1 1 -7.82576 1.72488 0.01 0.03 0 0
73 1 3 3.54089 0.813331 0 0 0 0
74 1 3 3.93373 0.813331 0 0 0 0
108 1 3 3.54089 1.20617 0 0 0 0
75 1 3 4.32656 0.813331 0 0 0 0
76 1 3 4.7194 0.813331 0 0 0 0
77 1 3 5.11224 0.813331 0 0 0 0
78 1 3 5.50507 0.813331 0 0 0 0
79 1 3 5.89791 0.813331 0 0 0 0
80 1 3 6.29075 0.813331 0 0 0 0
81 1 3 6.68359 0.813331 0 0 0 0
82 1 3 7.07642 0.813331 0 0 0 0
83 1 3 7.07642 1.20617 0 0 0 0
30 1 1 8.6387 1.72488 0.01 0.03 0 0
31 1 1 8.6387 1.33204 0.01 0.03 0 0
23 1 1 -9.39711 2.51055 0.01 0.03 0 0
24 1 1 -9.78995 2.51055 0.01 0.03 0 0
21 1 1 -8.61144 2.51055 0.01 0.03 0 0
22 1 1 -9.00427 2.51055 0.01 0.03 0 0
18 1 1 -7.82576 2.11772 0.01 0.03 0 0
19 1 1 -7.82576 2.51055 0.01 0.03 0 0
20 1 1 -8.2186 2.51055 0.01 0.03 0 0
106 1 3 3.54089 1.99184 0 0 0 0
107 1 3 3.54089 1.59901 0 0 0 0
84 1 3 7.07642 1.59901 0 0 0 0
85 1 3 7.07642 1.99184 0 0 0 0
28 1 1 8.6387 2.51055 0.01 0.03 0 0
29 1 1 8.6387 2.11772 0.01 0.03 0 0
26 1 1 9.42438 2.51055 0.01 0.03 0 0
27 1 1 9.03154 2.51055 0.01 0.03 0 0
25 1 1 9.81721 2.51055 0.01 0.03 0 0
105 1 3 3.54089 2.38468 0 0 0 0
86 1 3 7.07642 2.38468 0 0 0 0
103 1 3 3.54089 3.17035 0 0 0 0
104 1 3 3.54089 2.77752 0 0 0 0
87 1 3 7.07642 2.77752 0 0 0 0
88 1 3 7.07642 3.17035 0 0 0 0
101 1 3 3.54089 3.95603 0 0 0 0
102 1 3 3.54089 3.56319 0 0 0 0
89 1 3 7.07642 3.56319 0 0 0 0
90 1 3 7.07642 3.95603 0 0 0 0
109 1 4 -9.61891 4.08665 0 0 0 0
144 1 4 -9.61891 4.47948 0 0 0 0
110 1 4 -9.22607 4.08665 0 0 0 0
111 1 4 -8.83323 4.08665 0 0 0 0
112 1 4 -8.4404 4.08665 0 0 0 0
113 1 4 -8.04756 4.08665 0 0 0 0
114 1 4 -7.65472 4.08665 0 0 0 0
115 1 4 -7.26189 4.08665 0 0 0 0
116 1 4 -6.86905 4.08665 0 0 0 0
117 1 4 -6.47621 4.08665 0 0 0 0
118 1 4 -6.08338 4.08665 0 0 0 0
119 1 4 -6.08338 4.47948 0 0 0 0
99 1 3 3.93373 4.34887 0 0 0 0
100 1 3 3.54089 4.34887 0 0 0 0
98 1 3 4.32656 4.34887 0 0 0 0
96 1 3 5.11224 4.34887 0 0 0 0
97 1 3 4.7194 4.34887 0 0 0 0
94 1 3 5.89791 4.34887 0 0 0 0
95 1 3 5.50507 4.34887 0 0 0 0
93 1 3 6.29075 4.34887 0 0 0 0
91 1 3 7.07642 4.34887 0 0 0 0
92 1 3 6.68359 4.34887 0 0 0 0
142 1 4 -9.61891 5.26516 0 0 0 0
143 1 4 -9.61891 4.87232 0 0 0 0
120 1 4 -6.08338 4.87232 0 0 0 0
121 1 4 -6.08338 5.26516 0 0 0 0
141 1 4 -9.61891 5.65799 0 0 0 0
122 1 4 -6.08338 5.65799 0 0 0 0
139 1 4 -9.61891 6.44367 0 0 0 0
140 1 4 -9.61891 6.05083 0 0 0 0
123 1 4 -6.08338 6.05083 0 0 0 0
124 1 4 -6.08338 6.44367 0 0 0 0
137 1 4 -9.61891 7.22934 0 0 0 0
138 1 4 -9.61891 6.83651 0 0 0 0
125 1 4 -6.08338 6.83651 0 0 0 0
126 1 4 -6.08338 7.22934 0 0 0 0
136 1 4 -9.61891 7.62218 0 0 0 0
134 1 4 -8.83323 7.62218 0 0 0 0
135 1 4 -9.22607 7.62218 0 0 0 0
132 1 4 -8.04756 7.62218 0 0 0 0
133 1 4 -8.4404 7.62218 0 0 0 0
131 1 4 -7.65472 7.62218 0 0 0 0
129 1 4 -6.86905 7.62218 0 0 0 0
130 1 4 -7.26189 7.62218 0 0 0 0
127 1 4 -6.08338 7.62218 0 0 0 0
128 1 4 -6.47621 7.62218 0 0 0 0
ITEM: TIMESTEP
300
ITEM: NUMBER OF ATOMS
144
ITEM: BOX BOUNDS pp pp pp
-1.0000000000000000e+01 1.0000000000000000e+01
-1.0000000000000000e+01 1.0000000000000000e+01
-5.0000000000000000e-01 5.0000000000000000e-01
ITEM: ATOMS id type mol x y vx vy fx fy
37 1 2 -5.06964 -6.31308 0.05 0.02 0 0
38 1 2 -4.67681 -6.31308 0.05 0.02 0 0
39 1 2 -4.28397 -6.31308 0.05 0.02 0 0
40 1 2 -3.89113 -6.31308 0.05 0.02 0 0
41 1 2 -3.4983 -6.31308 0.05 0.02 0 0
42 1 2 -3.10546 -6.31308 0.05 0.02 0 0
43 1 2 -2.71262 -6.31308 0.05 0.02 0 0
44 1 2 -2.31978 -6.31308 0.05 0.02 0 0
45 1 2 -1.92695 -6.31308 0.05 0.02 0 0
46 1 2 -1.53411 -6.31308 0.05 0.02 0 0
71 1 2 -5.06964 -5.5274 0.05 0.02 0 0
72 1 2 -5.06964 -5.92024 0.05 0.02 0 0
47 1 2 -1.53411 -5.92024 0.05 0.02 0 0
48 1 2 -1.53411 -5.5274 0.05 0.02 0 0
69 1 2 -5.06964 -4.74173 0.05 0.02 0 0
70 1 2 -5.06964 -5.13457 0.05 0.02 0 0
49 1 2 -1.53411 -5.13457 0.05 0.02 0 0
50 1 2 -1.53411 -4.74173 0.05 0.02 0 0
68 1 2 -5.06964 -4.34889 0.05 0.02 0 0
51 1 2 -1.53411 -4.34889 0.05 0.02 0 0
66 1 2 -5.06964 -3.56322 0.05 0.02 0 0
67 1 2 -5.06964 -3.95606 0.05 0.02 0 0
52 1 2 -1.53411 -3.95606 0.05 0.02 0 0
53 1 2 -1.53411 -3.56322 0.05 0.02 0 0
63 1 2 -4.67681 -2.77754 0.05 0.02 0 0
64 1 2 -5.06964 -2.77754 0.05 0.02 0 0
65 1 2 -5.06964 -3.17038 0.05 0.02 0 0
61 1 2 -3.89113 -2.77754 0.05 0.02 0 0
62 1 2 -4.28397 -2.77754 0.05 0.02 0 0
60 1 2 -3.4983 -2.77754 0.05 0.02 0 0
58 1 2 -2.71262 -2.77754 0.05 0.02 0 0
59 1 2 -3.10546 -2.77754 0.05 0.02 0 0
56 1 2 -1.92695 -2.77754 0.05 0.02 0 0
57 1 2 -2.31978 -2.77754 0.05 0.02 0 0
54 1 2 -1.53411 -3.17038 0.05 0.02 0 0
55 1 2 -1.53411 -2.77754 0.05 0.02 0 0
5 1 1 -9.68995 -0.724979 0.01 0.03 0 0
6 1 1 -9.29711 -0.724979 0.01 0.03 0 0
7 1 1 -8.90427 -0.724979 0.01 0.03 0 0
8 1 1 -8.51144 -0.724979 0.01 0.03 0 0
9 1 1 -8.1186 -0.724979 0.01 0.03 0 0
10 1 1 -7.72576 -0.724979 0.01 0.03 0 0
1 1 1 8.7387 -0.724979 0.01 0.03 0 0
2 1 1 9.13154 -0.724979 0.01 0.03 0 0
3 1 1 9.52438 -0.724979 0.01 0.03 0 0
4 1 1 9.91721 -0.724979 0.01 0.03 0 0
11 1 1 -7.72576 -0.332142 0.01 0.03 0 0
12 1 1 -7.72576 0.0606952 0.01 0.03 0 0
35 1 1 8.7387 0.0606952 0.01 0.03 0 0
36 1 1 8.7387 -0.332142 0.01 0.03 0 0
13 1 1 -7.72576 0.453532 0.01 0.03 0 0
14 1 1 -7.72576 0.846369 0.01 0.03 0 0
33 1 1 8.7387 0.846369 0.01 0.03 0 0
34 1 1 8.7387 0.453532 0.01 0.03 0 0
15 1 1 -7.72576 1.23921 0.01 0.03 0 0
32 1 1 8.7387 1.23921 0.01 0.03 0 0
16 1 1 -7.72576 1.63204 0.01 0.03 0 0
17 1 1 -7.72576 2.02488 0.01 0.03 0 0
73 1 3 3.54089 0.813331 0 0 0 0
74 1 3 3.93373 0.813331 0 0 0 0
108 1 3 3.54089 1.20617 0 0 0 0
75 1 3 4.32656 0.813331 0 0 0 0
76 1 3 4.7194 0.813331 0 0 0 0
77 1 3 5.11224 0.813331 0 0 0 0
78 1 3 5.50507 0.813331 0 0 0 0
79 1 3 5.89791 0.813331 0 0 0 0
80 1 3 6.29075 0.813331 0 0 0 0
81 1 3 6.68359 0.813331 0 0 0 0
82 1 3 7.07642 0.813331 0 0 0 0
83 1 3 7.07642 1.20617 0 0 0 0
30 1 1 8.7387 2.02488 0.01 0.03 0 0
31 1 1 8.7387 1.63204 0.01 0.03 0 0
23 1 1 -9.29711 2.81055 0.01 0.03 0 0
24 1 1 -9.68995 2.81055 0.01 0.03 0 0
21 1 1 -8.51144 2.81055 0.01 0.03 0 0
22 1 1 -8.90427 2.81055 0.01 0.03 0 0
18 1 1 -7.72576 2.41772 0.01 0.03 0 0
19 1 1 -7.72576 2.81055 0.01 0.03 0 0
20 1 1 -8.1186 2.81055 0.01 0.03 0 0
106 1 3 3.54089 1.99184 0 0 0 0
107 1 3 3.54089 1.59901 0 0 0 0
84 1 3 7.07642 1.59901 0 0 0 0
85 1 3 7.07642 1.99184 0 0 0 0
28 1 1 8.7387 2.81055 0.01 0.03 0 0
29 1 1 8.7387 2.41772 0.01 0.03 0 0
26 1 1 9.52438 2.81055 0.01 0.03 0 0
27 1 1 9.13154 2.81055 0.01 0.03 0 0
25 1 1 9.91721 2.81055 0.01 0.03 0 0
105 1 3 3.54089 2.38468 0 0 0 0
86 1 3 7.07642 2.38468 0 0 0 0
103 1 3 3.54089 3.17035 0 0 0 0
104 1 3 3.54089 2.77752 0 0 0 0
87 1 3 7.07642 2.77752 0 0 0 0
88 1 3 7.07642 3.17035 0 0 0 0
101 1 3 3.54089 3.95603 0 0 0 0
102 1 3 3.54089 3.56319 0 0 0 0
89 1 3 7.07642 3.56319 0 0 0 0
90 1 3 7.07642 3.95603 0 0 0 0
109 1 4 -9.61891 4.08665 0 0 0 0
144 1 4 -9.61891 4.47948 0 0 0 0
110 1 4 -9.22607 4.08665 0 0 0 0
111 1 4 -8.83323 4.08665 0 0 0 0
112 1 4 -8.4404 4.08665 0 0 0 0
113 1 4 -8.04756 4.08665 0 0 0 0
114 1 4 -7.65472 4.08665 0 0 0 0
115 1 4 -7.26189 4.08665 0 0 0 0
116 1 4 -6.86905 4.08665 0 0 0 0
117 1 4 -6.47621 4.08665 0 0 0 0
118 1 4 -6.08338 4.08665 0 0 0 0
119 1 4 -6.08338 4.47948 0 0 0 0
99 1 3 3.93373 4.34887 0 0 0 0
100 1 3 3.54089 4.34887 0 0 0 0
98 1 3 4.32656 4.34887 0 0 0 0
96 1 3 5.11224 4.34887 0 0 0 0
97 1 3 4.7194 4.34887 0 0 0 0
94 1 3 5.89791 4.34887 0 0 0 0
95 1 3 5.50507 4.34887 0 0 0 0
93 1 3 6.29075 4.34887 0 0 0 0
91 1 3 7.07642 4.34887 0 0 0 0
92 1 3 6.68359 4.34887 0 0 0 0
142 1 4 -9.61891 5.26516 0 0 0 0
143 1 4 -9.61891 4.87232 0 0 0 0
120 1 4 -6.08338 4.87232 0 0 0 0
121 1 4 -6.08338 5.26516 0 0 0 0
141 1 4 -9.61891 5.65799 0 0 0 0
122 1 4 -6.08338 5.65799 0 0 0 0
139 1 4 -9.61891 6.44367 0 0 0 0
140 1 4 -9.61891 6.05083 0 0 0 0
123 1 4 -6.08338 6.05083 0 0 0 0
124 1 4 -6.08338 6.44367 0 0 0 0
137 1 4 -9.61891 7.22934 0 0 0 0
138 1 4 -9.61891 6.83651 0 0 0 0
125 1 4 -6.08338 6.83651 0 0 0 0
126 1 4 -6.08338 7.22934 0 0 0 0
136 1 4 -9.61891 7.62218 0 0 0 0
134 1 4 -8.83323 7.62218 0 0 0 0
135 1 4 -9.22607 7.62218 0 0 0 0
132 1 4 -8.04756 7.62218 0 0 0 0
133 1 4 -8.4404 7.62218 0 0 0 0
131 1 4 -7.65472 7.62218 0 0 0 0
129 1 4 -6.86905 7.62218 0 0 0 0
130 1 4 -7.26189 7.62218 0 0 0 0
127 1 4 -6.08338 7.62218 0 0 0 0
128 1 4 -6.47621 7.62218 0 0 0 0
ITEM: TIMESTEP
400
ITEM: NUMBER OF ATOMS
144
ITEM: BOX BOUNDS pp pp pp
-1.0000000000000000e+01 1.0000000000000000e+01
-1.0000000000000000e+01 1.0000000000000000e+01
-5.0000000000000000e-01 5.0000000000000000e-01
ITEM: ATOMS id type mol x y vx vy fx fy
37 1 2 -4.56964 -6.11308 0.05 0.02 0 0
38 1 2 -4.17681 -6.11308 0.05 0.02 0 0
39 1 2 -3.78397 -6.11308 0.05 0.02 0 0
40 1 2 -3.39113 -6.11308 0.05 0.02 0 0
41 1 2 -2.9983 -6.11308 0.05 0.02 0 0
42 1 2 -2.60546 -6.11308 0.05 0.02 0 0
43 1 2 -2.21262 -6.11308 0.05 0.02 0 0
44 1 2 -1.81978 -6.11308 0.05 0.02 0 0
45 1 2 -1.42695 -6.11308 0.05 0.02 0 0
46 1 2 -1.03411 -6.11308 0.05 0.02 0 0
71 1 2 -4.56964 -5.3274 0.05 0.02 0 0
72 1 2 -4.56964 -5.72024 0.05 0.02 0 0
47 1 2 -1.03411 -5.72024 0.05 0.02 0 0
48 1 2 -1.03411 -5.3274 0.05 0.02 0 0
69 1 2 -4.56964 -4.54173 0.05 0.02 0 0
70 1 2 -4.56964 -4.93457 0.05 0.02 0 0
49 1 2 -1.03411 -4.93457 0.05 0.02 0 0
50 1 2 -1.03411 -4.54173 0.05 0.02 0 0
68 1 2 -4.56964 -4.14889 0.05 0.02 0 0
51 1 2 -1.03411 -4.14889 0.05 0.02 0 0
66 1 2 -4.56964 -3.36322 0.05 0.02 0 0
67 1 2 -4.56964 -3.75606 0.05 0.02 0 0
52 1 2 -1.03411 -3.75606 0.05 0.02 0 0
53 1 2 -1.03411 -3.36322 0.05 0.02 0 0
63 1 2 -4.17681 -2.57754 0.05 0.02 0 0
64 1 2 -4.56964 -2.57754 0.05 0.02 0 0
65 1 2 -4.56964 -2.97038 0.05 0.02 0 0
61 1 2 -3.39113 -2.57754 0.05 0.02 0 0
62 1 2 -3.78397 -2.57754 0.05 0.02 0 0
60 1 2 -2.9983 -2.57754 0.05 0.02 0 0
58 1 2 -2.21262 -2.57754 0.05 0.02 0 0
59 1 2 -2.60546 -2.57754 0.05 0.02 0 0
56 1 2 -1.42695 -2.57754 0.05 0.02 0 0
57 1 2 -1.81978 -2.57754 0.05 0.02 0 0
54 1 2 -1.03411 -2.97038 0.05 0.02 0 0
55 1 2 -1.03411 -2.57754 0.05 0.02 0 0
5 1 1 -9.58995 -0.424979 0.01 0.03 0 0
6 1 1 -9.19711 -0.424979 0.01 0.03 0 0
7 1 1 -8.80427 -0.424979 0.01 0.03 0 0
8 1 1 -8.41144 -0.424979 0.01 0.03 0 0
9 1 1 -8.0186 -0.424979 0.01 0.03 0 0
10 1 1 -7.62576 -0.424979 0.01 0.03 0 0
1 1 1 8.8387 -0.424979 0.01 0.03 0 0
2 1 1 9.23154 -0.424979 0.01 0.03 0 0
3 1 1 9.62438 -0.424979 0.01 0.03 0 0
4 1 1 -9.98279 -0.424979 0.01 0.03 0 0
11 1 1 -7.62576 -0.0321419 0.01 0.03 0 0
12 1 1 -7.62576 0.360695 0.01 0.03 0 0
35 1 1 8.8387 0.360695 0.01 0.03 0 0
36 1 1 8.8387 -0.0321419 0.01 0.03 0 0
13 1 1 -7.62576 0.753532 0.01 0.03 0 0
14 1 1 -7.62576 1.14637 0.01 0.03 0 0
33 1 1 8.8387 1.14637 0.01 0.03 0 0
34 1 1 8.8387 0.753532 0.01 0.03 0 0
15 1 1 -7.62576 1.53921 0.01 0.03 0 0
32 1 1 8.8387 1.53921 0.01 0.03 0 0
16 1 1 -7.62576 1.93204 0.01 0.03 0 0
17 1 1 -7.62576 2.32488 0.01 0.03 0 0
73 1 3 3.54089 0.813331 0 0 0 0
74 1 3 3.93373 0.813331 0 0 0 0
108 1 3 3.54089 1.20617 0 0 0 0
75 1 3 4.32656 0.813331 0 0 0 0
76 1 3 4.7194 0.813331 0 0 0 0
77 1 3 5.11224 0.813331 0 0 0 0
78 1 3 5.50507 0.813331 0 0 0 0
79 1 3 5.89791 0.813331 0 0 0 0
80 1 3 6.29075 0.813331 0 0 0 0
81 1 3 6.68359 0.813331 0 0 0 0
82 1 3 7.07642 0.813331 0 0 0 0
83 1 3 7.07642 1.20617 0 0 0 0
30 1 1 8.8387 2.32488 0.01 0.03 0 0
31 1 1 8.8387 1.93204 0.01 0.03 0 0
23 1 1 -9.19711 3.11055 0.01 0.03 0 0
24 1 1 -9.58995 3.11055 0.01 0.03 0 0
21 1 1 -8.41144 3.11055 0.01 0.03 0 0
22 1 1 -8.80427 3.11055 0.01 0.03 0 0
18 1 1 -7.62576 2.71772 0.01 0.03 0 0
19 1 1 -7.62576 3.11055 0.01 0.03 0 0
20 1 1 -8.0186 3.11055 0.01 0.03 0 0
106 1 3 3.54089 1.99184 0 0 0 0
107 1 3 3.54089 1.59901 0 0 0 0
84 1 3 7.07642 1.59901 0 0 0 0
85 1 3 7.07642 1.99184 0 0 0 0
28 1 1 8.8387 3.11055 0.01 0.03 0 0
29 1 1 8.8387 2.71772 0.01 0.03 0 0
26 1 1 9.62438 3.11055 0.01 0.03 0 0
27 1 1 9.23154 3.11055 0.01 0.03 0 0
25 1 1 -9.98279 3.11055 0.01 0.03 0 0
105 1 3 3.54089 2.38468 0 0 0 0
86 1 3 7.07642 2.38468 0 0 0 0
103 1 3 3.54089 3.17035 0 0 0 0
104 1 3 3.54089 2.77752 0 0 0 0
87 1 3 7.07642 2.77752 0 0 0 0
88 1 3 7.07642 3.17035 0 0 0 0
101 1 3 3.54089 3.95603 0 0 0 0
102 1 3 3.54089 3.56319 0 0 0 0
89 1 3 7.07642 3.56319 0 0 0 0
90 1 3 7.07642 3.95603 0 0 0 0
109 1 4 -9.61891 4.08665 0 0 0 0
144 1 4 -9.61891 4.47948 0 0 0 0
110 1 4 -9.22607 4.08665 0 0 0 0
111 1 4 -8.83323 4.08665 0 0 0 0
112 1 4 -8.4404 4.08665 0 0 0 0
113 1 4 -8.04756 4.08665 0 0 0 0
114 1 4 -7.65472 4.08665 0 0 0 0
115 1 4 -7.26189 4.08665 0 0 0 0
116 1 4 -6.86905 4.08665 0 0 0 0
117 1 4 -6.47621 4.08665 0 0 0 0
118 1 4 -6.08338 4.08665 0 0 0 0
119 1 4 -6.08338 4.47948 0 0 0 0
99 1 3 3.93373 4.34887 0 0 0 0
100 1 3 3.54089 4.34887 0 0 0 0
98 1 3 4.32656 4.34887 0 0 0 0
96 1 3 5.11224 4.34887 0 0 0 0
97 1 3 4.7194 4.34887 0 0 0 0
94 1 3 5.89791 4.34887 0 0 0 0
95 1 3 5.50507 4.34887 0 0 0 0
93 1 3 6.29075 4.34887 0 0 0 0
91 1 3 7.07642 4.34887 0 0 0 0
92 1 3 6.68359 4.34887 0 0 0 0
142 1 4 -9.61891 5.26516 0 0 0 0
143 1 4 -9.61891 4.87232 0 0 0 0
120 1 4 -6.08338 4.87232 0 0 0 0
121 1 4 -6.08338 5.26516 0 0 0 0
141 1 4 -9.61891 5.65799 0 0 0 0
122 1 4 -6.08338 5.65799 0 0 0 0
139 1 4 -9.61891 6.44367 0 0 0 0
140 1 4 -9.61891 6.05083 0 0 0 0
123 1 4 -6.08338 6.05083 0 0 0 0
124 1 4 -6.08338 6.44367 0 0 0 0
137 1 4 -9.61891 7.22934 0 0 0 0
138 1 4 -9.61891 6.83651 0 0 0 0
125 1 4 -6.08338 6.83651 0 0 0 0
126 1 4 -6.08338 7.22934 0 0 0 0
136 1 4 -9.61891 7.62218 0 0 0 0
134 1 4 -8.83323 7.62218 0 0 0 0
135 1 4 -9.22607 7.62218 0 0 0 0
132 1 4 -8.04756 7.62218 0 0 0 0
133 1 4 -8.4404 7.62218 0 0 0 0
131 1 4 -7.65472 7.62218 0 0 0 0
129 1 4 -6.86905 7.62218 0 0 0 0
130 1 4 -7.26189 7.62218 0 0 0 0
127 1 4 -6.08338 7.62218 0 0 0 0
128 1 4 -6.47621 7.62218 0 0 0 0
ITEM: TIMESTEP
500
ITEM: NUMBER OF ATOMS
144
ITEM: BOX BOUNDS pp pp pp
-1.0000000000000000e+01 1.0000000000000000e+01
-1.0000000000000000e+01 1.0000000000000000e+01
-5.0000000000000000e-01 5.0000000000000000e-01
ITEM: ATOMS id type mol x y vx vy fx fy
37 1 2 -4.06964 -5.91308 0.05 0.02 0 0
38 1 2 -3.67681 -5.91308 0.05 0.02 0 0
39 1 2 -3.28397 -5.91308 0.05 0.02 0 0
40 1 2 -2.89113 -5.91308 0.05 0.02 0 0
41 1 2 -2.4983 -5.91308 0.05 0.02 0 0
42 1 2 -2.10546 -5.91308 0.05 0.02 0 0
43 1 2 -1.71262 -5.91308 0.05 0.02 0 0
44 1 2 -1.31978 -5.91308 0.05 0.02 0 0
45 1 2 -0.926947 -5.91308 0.05 0.02 0 0
46 1 2 -0.53411 -5.91308 0.05 0.02 0 0
71 1 2 -4.06964 -5.1274 0.05 0.02 0 0
72 1 2 -4.06964 -5.52024 0.05 0.02 0 0
47 1 2 -0.53411 -5.52024 0.05 0.02 0 0
48 1 2 -0.53411 -5.1274 0.05 0.02 0 0
69 1 2 -4.06964 -4.34173 0.05 0.02 0 0
70 1 2 -4.06964 -4.73457 0.05 0.02 0 0
49 1 2 -0.53411 -4.73457 0.05 0.02 0 0
50 1 2 -0.53411 -4.34173 0.05 0.02 0 0
68 1 2 -4.06964 -3.94889 0.05 0.02 0 0
51 1 2 -0.53411 -3.94889 0.05 0.02 0 0
66 1 2 -4.06964 -3.16322 0.05 0.02 0 0
67 1 2 -4.06964 -3.55606 0.05 0.02 0 0
52 1 2 -0.53411 -3.55606 0.05 0.02 0 0
53 1 2 -0.53411 -3.16322 0.05 0.02 0 0
63 1 2 -3.67681 -2.37754 0.05 0.02 0 0
64 1 2 -4.06964 -2.37754 0.05 0.02 0 0
65 1 2 -4.06964 -2.77038 0.05 0.02 0 0
61 1 2 -2.89113 -2.37754 0.05 0.02 0 0
62 1 2 -3.28397 -2.37754 0.05 0.02 0 0
60 1 2 -2.4983 -2.37754 0.05 0.02 0 0
58 1 2 -1.71262 -2.37754 0.05 0.02 0 0
59 1 2 -2.10546 -2.37754 0.05 0.02 0 0
56 1 2 -0.926947 -2.37754 0.05 0.02 0 0
57 1 2 -1.31978 -2.37754 0.05 0.02 0 0
54 1 2 -0.53411 -2.77038 0.05 0.02 0 0
55 1 2 -0.53411 -2.37754 0.05 0.02 0 0
5 1 1 -9.48995 -0.124979 0.01 0.03 0 0
6 1 1 -9.09711 -0.124979 0.01 0.03 0 0
7 1 1 -8.70427 -0.124979 0.01 0.03 0 0
8 1 1 -8.31144 -0.124979 0.01 0.03 0 0
9 1 1 -7.9186 -0.124979 0.01 0.03 0 0
10 1 1 -7.52576 -0.124979 0.01 0.03 0 0
1 1 1 8.9387 -0.124979 0.01 0.03 0 0
2 1 1 9.33154 -0.124979 0.01 0.03 0 0
3 1 1 9.72438 -0.124979 0.01 0.03 0 0
4 1 1 -9.88279 -0.124979 0.01 0.03 0 0
11 1 1 -7.52576 0.267858 0.01 0.03 0 0
12 1 1 -7.52576 0.660695 0.01 0.03 0 0
35 1 1 8.9387 0.660695 0.01 0.03 0 0
36 1 1 8.9387 0.267858 0.01 0.03 0 0
13 1 1 -7.52576 1.05353 0.01 0.03 0 0
14 1 1 -7.52576 1.44637 0.01 0.03 0 0
33 1 1 8.9387 1.44637 0.01 0.03 0 0
34 1 1 8.9387 1.05353 0.01 0.03 0 0
15 1 1 -7.52576 1.83921 0.01 0.03 0 0
32 1 1 8.9387 1.83921 0.01 0.03 0 0
16 1 1 -7.52576 2.23204 0.01 0.03 0 0
17 1 1 -7.52576 2.62488 0.01 0.03 0 0
73 1 3 3.54089 0.813331 0 0 0 0
74 1 3 3.93373 0.813331 0 0 0 0
108 1 3 3.54089 1.20617 0 0 0 0
75 1 3 4.32656 0.813331 0 0 0 0
76 1 3 4.7194 0.813331 0 0 0 0
77 1 3 5.11224 0.813331 0 0 0 0
78 1 3 5.50507 0.813331 0 0 0 0
79 1 3 5.89791 0.813331 0 0 0 0
80 1 3 6.29075 0.813331 0 0 0 0
81 1 3 6.68359 0.813331 0 0 0 0
82 1 3 7.07642 0.813331 0 0 0 0
83 1 3 7.07642 1.20617 0 0 0 0
30 1 1 8.9387 2.62488 0.01 0.03 0 0
31 1 1 8.9387 2.23204 0.01 0.03 0 0
23 1 1 -9.09711 3.41055 0.01 0.03 0 0
24 1 1 -9.48995 3.41055 0.01 0.03 0 0
21 1 1 -8.31144 3.41055 0.01 0.03 0 0
22 1 1 -8.70427 3.41055 0.01 0.03 0 0
18 1 1 -7.52576 3.01772 0.01 0.03 0 0
19 1 1 -7.52576 3.41055 0.01 0.03 0 0
20 1 1 -7.9186 3.41055 0.01 0.03 0 0
106 1 3 3.54089 1.99184 0 0 0 0
107 1 3 3.54089 1.59901 0 0 0 0
84 1 3 7.07642 1.59901 0 0 0 0
85 1 3 7.07642 1.99184 0 0 0 0