ITEM: TIMESTEP
0
ITEM: NUMBER OF ATOMS
160
ITEM: BOX BOUNDS pp pp pp
-1.0500000000000000e+01 1.0500000000000000e+01
-1.0500000000000000e+01 1.0500000000000000e+01
-5.0000000000000000e-01 5.0000000000000000e-01
ITEM: ATOMS id type mol x y vx vy fx fy
1 1 1 -3 0.001 0.1 0 0 0
2 1 1 -3.03078 0.392086 0.1 0 0 0
3 1 1 -3.12236 0.773543 0.1 0 0 0
4 1 1 -3.27248 1.13598 0.1 0 0 0
5 1 1 -3.47746 1.47046 0.1 0 0 0
6 1 1 -3.73223 1.76877 0.1 0 0 0
7 1 1 -4.03054 2.02354 0.1 0 0 0
8 1 1 -4.36502 2.22852 0.1 0 0 0
9 1 1 -4.72746 2.37864 0.1 0 0 0
10 1 1 -5.10891 2.47022 0.1 0 0 0
11 1 1 -5.5 2.501 0.1 0 0 0
12 1 1 -5.89109 2.47022 0.1 0 0 0
13 1 1 -6.27254 2.37864 0.1 0 0 0
14 1 1 -6.63498 2.22852 0.1 0 0 0
15 1 1 -6.96946 2.02354 0.1 0 0 0
16 1 1 -7.26777 1.76877 0.1 0 0 0
17 1 1 -7.52254 1.47046 0.1 0 0 0
18 1 1 -7.72752 1.13598 0.1 0 0 0
19 1 1 -7.87764 0.773543 0.1 0 0 0
20 1 1 -7.96922 0.392086 0.1 0 0 0
21 1 1 -8 0.001 0.1 0 0 0
22 1 1 -7.96922 -0.390086 0.1 0 0 0
23 1 1 -7.87764 -0.771543 0.1 0 0 0
24 1 1 -7.72752 -1.13398 0.1 0 0 0
25 1 1 -7.52254 -1.46846 0.1 0 0 0
26 1 1 -7.26777 -1.76677 0.1 0 0 0
27 1 1 -6.96946 -2.02154 0.1 0 0 0
28 1 1 -6.63498 -2.22652 0.1 0 0 0
29 1 1 -6.27254 -2.37664 0.1 0 0 0
30 1 1 -5.89109 -2.46822 0.1 0 0 0
31 1 1 -5.5 -2.499 0.1 0 0 0
32 1 1 -5.10891 -2.46822 0.1 0 0 0
33 1 1 -4.72746 -2.37664 0.1 0 0 0
34 1 1 -4.36502 -2.22652 0.1 0 0 0
35 1 1 -4.03054 -2.02154 0.1 0 0 0
36 1 1 -3.73223 -1.76677 0.1 0 0 0
37 1 1 -3.47746 -1.46846 0.1 0 0 0
38 1 1 -3.27248 -1.13398 0.1 0 0 0
39 1 1 -3.12236 -0.771543 0.1 0 0 0
40 1 1 -3.03078 -0.390086 0.1 0 0 0
41 1 2 8 0 0 0 0 0
42 1 2 7.96922 0.391086 0 0 0 0
43 1 2 7.87764 0.772543 0 0 0 0
44 1 2 7.72752 1.13498 0 0 0 0
45 1 2 7.52254 1.46946 0 0 0 0
46 1 2 7.26777 1.76777 0 0 0 0
47 1 2 6.96946 2.02254 0 0 0 0
48 1 2 6.63498 2.22752 0 0 0 0
49 1 2 6.27254 2.37764 0 0 0 0
50 1 2 5.89109 2.46922 0 0 0 0
51 1 2 5.5 2.5 0 0 0 0
52 1 2 5.10891 2.46922 0 0 0 0
53 1 2 4.72746 2.37764 0 0 0 0
54 1 2 4.36502 2.22752 0 0 0 0
55 1 2 4.03054 2.02254 0 0 0 0
56 1 2 3.73223 1.76777 0 0 0 0
57 1 2 3.47746 1.46946 0 0 0 0
58 1 2 3.27248 1.13498 0 0 0 0
59 1 2 3.12236 0.772543 0 0 0 0
60 1 2 3.03078 0.391086 0 0 0 0
61 1 2 3 3.06152e-16 0 0 0 0
62 1 2 3.03078 -0.391086 0 0 0 0
63 1 2 3.12236 -0.772543 0 0 0 0
64 1 2 3.27248 -1.13498 0 0 0 0
65 1 2 3.47746 -1.46946 0 0 0 0
66 1 2 3.73223 -1.76777 0 0 0 0
67 1 2 4.03054 -2.02254 0 0 0 0
68 1 2 4.36502 -2.22752 0 0 0 0
69 1 2 4.72746 -2.37764 0 0 0 0
70 1 2 5.10891 -2.46922 0 0 0 0
71 1 2 5.5 -2.5 0 0 0 0
72 1 2 5.89109 -2.46922 0 0 0 0
73 1 2 6.27254 -2.37764 0 0 0 0
74 1 2 6.63498 -2.22752 0 0 0 0
75 1 2 6.96946 -2.02254 0 0 0 0
76 1 2 7.26777 -1.76777 0 0 0 0
77 1 2 7.52254 -1.46946 0 0 0 0
78 1 2 7.72752 -1.13498 0 0 0 0
79 1 2 7.87764 -0.772543 0 0 0 0
80 1 2 7.96922 -0.391086 0 0 0 0
81 1 3 2.5 5.5 0.05 0.05 0 0
82 1 3 2.46922 5.89109 0.05 0.05 0 0
83 1 3 2.37764 6.27254 0.05 0.05 0 0
84 1 3 2.22752 6.63498 0.05 0.05 0 0
85 1 3 2.02254 6.96946 0.05 0.05 0 0
86 1 3 1.76777 7.26777 0.05 0.05 0 0
87 1 3 1.46946 7.52254 0.05 0.05 0 0
88 1 3 1.13498 7.72752 0.05 0.05 0 0
89 1 3 0.772543 7.87764 0.05 0.05 0 0
90 1 3 0.391086 7.96922 0.05 0.05 0 0
91 1 3 1.53076e-16 8 0.05 0.05 0 0
92 1 3 -0.391086 7.96922 0.05 0.05 0 0
93 1 3 -0.772543 7.87764 0.05 0.05 0 0
94 1 3 -1.13498 7.72752 0.05 0.05 0 0
95 1 3 -1.46946 7.52254 0.05 0.05 0 0
96 1 3 -1.76777 7.26777 0.05 0.05 0 0
97 1 3 -2.02254 6.96946 0.05 0.05 0 0
98 1 3 -2.22752 6.63498 0.05 0.05 0 0
99 1 3 -2.37764 6.27254 0.05 0.05 0 0
100 1 3 -2.46922 5.89109 0.05 0.05 0 0
101 1 3 -2.5 5.5 0.05 0.05 0 0
102 1 3 -2.46922 5.10891 0.05 0.05 0 0
103 1 3 -2.37764 4.72746 0.05 0.05 0 0
104 1 3 -2.22752 4.36502 0.05 0.05 0 0
105 1 3 -2.02254 4.03054 0.05 0.05 0 0
106 1 3 -1.76777 3.73223 0.05 0.05 0 0
107 1 3 -1.46946 3.47746 0.05 0.05 0 0
108 1 3 -1.13498 3.27248 0.05 0.05 0 0
109 1 3 -0.772543 3.12236 0.05 0.05 0 0
110 1 3 -0.391086 3.03078 0.05 0.05 0 0
111 1 3 -4.59227e-16 3 0.05 0.05 0 0
112 1 3 0.391086 3.03078 0.05 0.05 0 0
113 1 3 0.772543 3.12236 0.05 0.05 0 0
114 1 3 1.13498 3.27248 0.05 0.05 0 0
115 1 3 1.46946 3.47746 0.05 0.05 0 0
116 1 3 1.76777 3.73223 0.05 0.05 0 0
117 1 3 2.02254 4.03054 0.05 0.05 0 0
118 1 3 2.22752 4.36502 0.05 0.05 0 0
119 1 3 2.37764 4.72746 0.05 0.05 0 0
120 1 3 2.46922 5.10891 0.05 0.05 0 0
121 1 4 2.5 -5.5 0 0 0 0
122 1 4 2.46922 -5.10891 0 0 0 0
123 1 4 2.37764 -4.72746 0 0 0 0
124 1 4 2.22752 -4.36502 0 0 0 0
125 1 4 2.02254 -4.03054 0 0 0 0
126 1 4 1.76777 -3.73223 0 0 0 0
127 1 4 1.46946 -3.47746 0 0 0 0
128 1 4 1.13498 -3.27248 0 0 0 0
129 1 4 0.772543 -3.12236 0 0 0 0
130 1 4 0.391086 -3.03078 0 0 0 0
131 1 4 1.53076e-16 -3 0 0 0 0
132 1 4 -0.391086 -3.03078 0 0 0 0
133 1 4 -0.772543 -3.12236 0 0 0 0
134 1 4 -1.13498 -3.27248 0 0 0 0
135 1 4 -1.46946 -3.47746 0 0 0 0
136 1 4 -1.76777 -3.73223 0 0 0 0
137 1 4 -2.02254 -4.03054 0 0 0 0
138 1 4 -2.22752 -4.36502 0 0 0 0
139 1 4 -2.37764 -4.72746 0 0 0 0
140 1 4 -2.46922 -5.10891 0 0 0 0
141 1 4 -2.5 -5.5 0 0 0 0
142 1 4 -2.46922 -5.89109 0 0 0 0
143 1 4 -2.37764 -6.27254 0 0 0 0
144 1 4 -2.22752 -6.63498 0 0 0 0
145 1 4 -2.02254 -6.96946 0 0 0 0
146 1 4 -1.76777 -7.26777 0 0 0 0
147 1 4 -1.46946 -7.52254 0 0 0 0
148 1 4 -1.13498 -7.72752 0 0 0 0
149 1 4 -0.772543 -7.87764 0 0 0 0
150 1 4 -0.391086 -7.96922 0 0 0 0
151 1 4 -4.59227e-16 -8 0 0 0 0
152 1 4 0.391086 -7.96922 0 0 0 0
153 1 4 0.772543 -7.87764 0 0 0 0
154 1 4 1.13498 -7.72752 0 0 0 0
155 1 4 1.46946 -7.52254 0 0 0 0
156 1 4 1.76777 -7.26777 0 0 0 0
157 1 4 2.02254 -6.96946 0 0 0 0
158 1 4 2.22752 -6.63498 0 0 0 0
159 1 4 2.37764 -6.27254 0 0 0 0
160 1 4 2.46922 -5.89109 0 0 0 0
ITEM: TIMESTEP
100
ITEM: NUMBER OF ATOMS
160
ITEM: BOX BOUNDS pp pp pp
-1.0500000000000000e+01 1.0500000000000000e+01
-1.0500000000000000e+01 1.0500000000000000e+01
-5.0000000000000000e-01 5.0000000000000000e-01
ITEM: ATOMS id type mol x y vx vy fx fy
1 1 1 -2 0.001 0.1 0 0 0
2 1 1 -2.03078 0.392086 0.1 0 0 0
3 1 1 -2.12236 0.773543 0.1 0 0 0
4 1 1 -2.27248 1.13598 0.1 0 0 0
5 1 1 -2.47746 1.47046 0.1 0 0 0
6 1 1 -2.73223 1.76877 0.1 0 0 0
7 1 1 -3.03054 2.02354 0.1 0 0 0
8 1 1 -3.36502 2.22852 0.1 0 0 0
9 1 1 -3.72746 2.37864 0.1 0 0 0
10 1 1 -4.10891 2.47022 0.1 0 0 0
11 1 1 -4.5 2.501 0.1 0 0 0
12 1 1 -4.89109 2.47022 0.1 0 0 0
13 1 1 -5.27254 2.37864 0.1 0 0 0
14 1 1 -5.63498 2.22852 0.1 0 0 0
15 1 1 -5.96946 2.02354 0.1 0 0 0
16 1 1 -6.26777 1.76877 0.1 0 0 0
17 1 1 -6.52254 1.47046 0.1 0 0 0
18 1 1 -6.72752 1.13598 0.1 0 0 0
19 1 1 -6.87764 0.773543 0.1 0 0 0
20 1 1 -6.96922 0.392086 0.1 0 0 0
21 1 1 -7 0.001 0.1 0 0 0
22 1 1 -6.96922 -0.390086 0.1 0 0 0
23 1 1 -6.87764 -0.771543 0.1 0 0 0
24 1 1 -6.72752 -1.13398 0.1 0 0 0
25 1 1 -6.52254 -1.46846 0.1 0 0 0
26 1 1 -6.26777 -1.76677 0.1 0 0 0
27 1 1 -5.96946 -2.02154 0.1 0 0 0
28 1 1 -5.63498 -2.22652 0.1 0 0 0
29 1 1 -5.27254 -2.37664 0.1 0 0 0
30 1 1 -4.89109 -2.46822 0.1 0 0 0
31 1 1 -4.5 -2.499 0.1 0 0 0
32 1 1 -4.10891 -2.46822 0.1 0 0 0
33 1 1 -3.72746 -2.37664 0.1 0 0 0
34 1 1 -3.36502 -2.22652 0.1 0 0 0
35 1 1 -3.03054 -2.02154 0.1 0 0 0
36 1 1 -2.73223 -1.76677 0.1 0 0 0
37 1 1 -2.47746 -1.46846 0.1 0 0 0
38 1 1 -2.27248 -1.13398 0.1 0 0 0
39 1 1 -2.12236 -0.771543 0.1 0 0 0
40 1 1 -2.03078 -0.390086 0.1 0 0 0
41 1 2 8 0 0 0 0 0
42 1 2 7.96922 0.391086 0 0 0 0
43 1 2 7.87764 0.772543 0 0 0 0
44 1 2 7.72752 1.13498 0 0 0 0
45 1 2 7.52254 1.46946 0 0 0 0
46 1 2 7.26777 1.76777 0 0 0 0
47 1 2 6.96946 2.02254 0 0 0 0
48 1 2 6.63498 2.22752 0 0 0 0
49 1 2 6.27254 2.37764 0 0 0 0
50 1 2 5.89109 2.46922 0 0 0 0
51 1 2 5.5 2.5 0 0 0 0
52 1 2 5.10891 2.46922 0 0 0 0
53 1 2 4.72746 2.37764 0 0 0 0
54 1 2 4.36502 2.22752 0 0 0 0
55 1 2 4.03054 2.02254 0 0 0 0
56 1 2 3.73223 1.76777 0 0 0 0
57 1 2 3.47746 1.46946 0 0 0 0
58 1 2 3.27248 1.13498 0 0 0 0
59 1 2 3.12236 0.772543 0 0 0 0
60 1 2 3.03078 0.391086 0 0 0 0
61 1 2 3 3.06152e-16 0 0 0 0
62 1 2 3.03078 -0.391086 0 0 0 0
63 1 2 3.12236 -0.772543 0 0 0 0
64 1 2 3.27248 -1.13498 0 0 0 0
65 1 2 3.47746 -1.46946 0 0 0 0
66 1 2 3.73223 -1.76777 0 0 0 0
67 1 2 4.03054 -2.02254 0 0 0 0
68 1 2 4.36502 -2.22752 0 0 0 0
69 1 2 4.72746 -2.37764 0 0 0 0
70 1 2 5.10891 -2.46922 0 0 0 0
71 1 2 5.5 -2.5 0 0 0 0
72 1 2 5.89109 -2.46922 0 0 0 0
73 1 2 6.27254 -2.37764 0 0 0 0
74 1 2 6.63498 -2.22752 0 0 0 0
75 1 2 6.96946 -2.02254 0 0 0 0
76 1 2 7.26777 -1.76777 0 0 0 0
77 1 2 7.52254 -1.46946 0 0 0 0
78 1 2 7.72752 -1.13498 0 0 0 0
79 1 2 7.87764 -0.772543 0 0 0 0
80 1 2 7.96922 -0.391086 0 0 0 0
81 1 3 3 6 0.05 0.05 0 0
82 1 3 2.96922 6.39109 0.05 0.05 0 0
83 1 3 2.87764 6.77254 0.05 0.05 0 0
84 1 3 2.72752 7.13498 0.05 0.05 0 0
85 1 3 2.52254 7.46946 0.05 0.05 0 0
86 1 3 2.26777 7.76777 0.05 0.05 0 0
87 1 3 1.96946 8.02254 0.05 0.05 0 0
88 1 3 1.63498 8.22752 0.05 0.05 0 0
89 1 3 1.27254 8.37764 0.05 0.05 0 0
90 1 3 0.891086 8.46922 0.05 0.05 0 0
91 1 3 0.5 8.5 0.05 0.05 0 0
92 1 3 0.108914 8.46922 0.05 0.05 0 0
93 1 3 -0.272542 8.37764 0.05 0.05 0 0
94 1 3 -0.634976 8.22752 0.05 0.05 0 0
95 1 3 -0.969463 8.02254 0.05 0.05 0 0
96 1 3 -1.26777 7.76777 0.05 0.05 0 0
97 1 3 -1.52254 7.46946 0.05 0.05 0 0
98 1 3 -1.72752 7.13498 0.05 0.05 0 0
99 1 3 -1.87764 6.77254 0.05 0.05 0 0
100 1 3 -1.96922 6.39109 0.05 0.05 0 0
101 1 3 -2 6 0.05 0.05 0 0
102 1 3 -1.96922 5.60891 0.05 0.05 0 0
103 1 3 -1.87764 5.22746 0.05 0.05 0 0
104 1 3 -1.72752 4.86502 0.05 0.05 0 0
105 1 3 -1.52254 4.53054 0.05 0.05 0 0
106 1 3 -1.26777 4.23223 0.05 0.05 0 0
107 1 3 -0.969463 3.97746 0.05 0.05 0 0
108 1 3 -0.634976 3.77248 0.05 0.05 0 0
109 1 3 -0.272542 3.62236 0.05 0.05 0 0
110 1 3 0.108914 3.53078 0.05 0.05 0 0
111 1 3 0.5 3.5 0.05 0.05 0 0
112 1 3 0.891086 3.53078 0.05 0.05 0 0
113 1 3 1.27254 3.62236 0.05 0.05 0 0
114 1 3 1.63498 3.77248 0.05 0.05 0 0
115 1 3 1.96946 3.97746 0.05 0.05 0 0
116 1 3 2.26777 4.23223 0.05 0.05 0 0
117 1 3 2.52254 4.53054 0.05 0.05 0 0
118 1 3 2.72752 4.86502 0.05 0.05 0 0
119 1 3 2.87764 5.22746 0.05 0.05 0 0
120 1 3 2.96922 5.60891 0.05 0.05 0 0
121 1 4 2.5 -5.5 0 0 0 0
122 1 4 2.46922 -5.10891 0 0 0 0
123 1 4 2.37764 -4.72746 0 0 0 0
124 1 4 2.22752 -4.36502 0 0 0 0
125 1 4 2.02254 -4.03054 0 0 0 0
126 1 4 1.76777 -3.73223 0 0 0 0
127 1 4 1.46946 -3.47746 0 0 0 0
128 1 4 1.13498 -3.27248 0 0 0 0
129 1 4 0.772543 -3.12236 0 0 0 0
130 1 4 0.391086 -3.03078 0 0 0 0
131 1 4 1.53076e-16 -3 0 0 0 0
132 1 4 -0.391086 -3.03078 0 0 0 0
133 1 4 -0.772543 -3.12236 0 0 0 0
134 1 4 -1.13498 -3.27248 0 0 0 0
135 1 4 -1.46946 -3.47746 0 0 0 0
136 1 4 -1.76777 -3.73223 0 0 0 0
137 1 4 -2.02254 -4.03054 0 0 0 0
138 1 4 -2.22752 -4.36502 0 0 0 0
139 1 4 -2.37764 -4.72746 0 0 0 0
140 1 4 -2.46922 -5.10891 0 0 0 0
141 1 4 -2.5 -5.5 0 0 0 0
142 1 4 -2.46922 -5.89109 0 0 0 0
143 1 4 -2.37764 -6.27254 0 0 0 0
144 1 4 -2.22752 -6.63498 0 0 0 0
145 1 4 -2.02254 -6.96946 0 0 0 0
146 1 4 -1.76777 -7.26777 0 0 0 0
147 1 4 -1.46946 -7.52254 0 0 0 0
148 1 4 -1.13498 -7.72752 0 0 0 0
149 1 4 -0.772543 -7.87764 0 0 0 0
150 1 4 -0.391086 -7.96922 0 0 0 0
151 1 4 -4.59227e-16 -8 0 0 0 0
152 1 4 0.391086 -7.96922 0 0 0 0
153 1 4 0.772543 -7.87764 0 0 0 0
154 1 4 1.13498 -7.72752 0 0 0 0
155 1 4 1.46946 -7.52254 0 0 0 0
156 1 4 1.76777 -7.26777 0 0 0 0
157 1 4 2.02254 -6.96946 0 0 0 0
158 1 4 2.22752 -6.63498 0 0 0 0
159 1 4 2.37764 -6.27254 0 0 0 0
160 1 4 2.46922 -5.89109 0 0 0 0
ITEM: TIMESTEP
200
ITEM: NUMBER OF ATOMS
160
ITEM: BOX BOUNDS pp pp pp
-1.0500000000000000e+01 1.0500000000000000e+01
-1.0500000000000000e+01 1.0500000000000000e+01
-5.0000000000000000e-01 5.0000000000000000e-01
ITEM: ATOMS id type mol x y vx vy fx fy
1 1 1 -1 0.001 0.1 0 0 0
2 1 1 -1.03078 0.392086 0.1 0 0 0
3 1 1 -1.12236 0.773543 0.1 0 0 0
4 1 1 -1.27248 1.13598 0.1 0 0 0
5 1 1 -1.47746 1.47046 0.1 0 0 0
6 1 1 -1.73223 1.76877 0.1 0 0 0
7 1 1 -2.03054 2.02354 0.1 0 0 0
8 1 1 -2.36502 2.22852 0.1 0 0 0
9 1 1 -2.72746 2.37864 0.1 0 0 0
10 1 1 -3.10891 2.47022 0.1 0 0 0
11 1 1 -3.5 2.501 0.1 0 0 0
12 1 1 -3.89109 2.47022 0.1 0 0 0
13 1 1 -4.27254 2.37864 0.1 0 0 0
14 1 1 -4.63498 2.22852 0.1 0 0 0
15 1 1 -4.96946 2.02354 0.1 0 0 0
16 1 1 -5.26777 1.76877 0.1 0 0 0
17 1 1 -5.52254 1.47046 0.1 0 0 0
18 1 1 -5.72752 1.13598 0.1 0 0 0
19 1 1 -5.87764 0.773543 0.1 0 0 0
20 1 1 -5.96922 0.392086 0.1 0 0 0
21 1 1 -6 0.001 0.1 0 0 0
22 1 1 -5.96922 -0.390086 0.1 0 0 0
23 1 1 -5.87764 -0.771543 0.1 0 0 0
24 1 1 -5.72752 -1.13398 0.1 0 0 0
25 1 1 -5.52254 -1.46846 0.1 0 0 0
26 1 1 -5.26777 -1.76677 0.1 0 0 0
27 1 1 -4.96946 -2.02154 0.1 0 0 0
28 1 1 -4.63498 -2.22652 0.1 0 0 0
29 1 1 -4.27254 -2.37664 0.1 0 0 0
30 1 1 -3.89109 -2.46822 0.1 0 0 0
31 1 1 -3.5 -2.499 0.1 0 0 0
32 1 1 -3.10891 -2.46822 0.1 0 0 0
33 1 1 -2.72746 -2.37664 0.1 0 0 0
34 1 1 -2.36502 -2.22652 0.1 0 0 0
35 1 1 -2.03054 -2.02154 0.1 0 0 0
36 1 1 -1.73223 -1.76677 0.1 0 0 0
37 1 1 -1.47746 -1.46846 0.1 0 0 0
38 1 1 -1.27248 -1.13398 0.1 0 0 0
39 1 1 -1.12236 -0.771543 0.1 0 0 0
40 1 1 -1.03078 -0.390086 0.1 0 0 0
41 1 2 8 0 0 0 0 0
42 1 2 7.96922 0.391086 0 0 0 0
43 1 2 7.87764 0.772543 0 0 0 0
44 1 2 7.72752 1.13498 0 0 0 0
45 1 2 7.52254 1.46946 0 0 0 0
46 1 2 7.26777 1.76777 0 0 0 0
47 1 2 6.96946 2.02254 0 0 0 0
48 1 2 6.63498 2.22752 0 0 0 0
49 1 2 6.27254 2.37764 0 0 0 0
50 1 2 5.89109 2.46922 0 0 0 0
51 1 2 5.5 2.5 0 0 0 0
52 1 2 5.10891 2.46922 0 0 0 0
53 1 2 4.72746 2.37764 0 0 0 0
54 1 2 4.36502 2.22752 0 0 0 0
55 1 2 4.03054 2.02254 0 0 0 0
56 1 2 3.73223 1.76777 0 0 0 0
57 1 2 3.47746 1.46946 0 0 0 0
58 1 2 3.27248 1.13498 0 0 0 0
59 1 2 3.12236 0.772543 0 0 0 0
60 1 2 3.03078 0.391086 0 0 0 0
61 1 2 3 3.06152e-16 0 0 0 0
62 1 2 3.03078 -0.391086 0 0 0 0
63 1 2 3.12236 -0.772543 0 0 0 0
64 1 2 3.27248 -1.13498 0 0 0 0
65 1 2 3.47746 -1.46946 0 0 0 0
66 1 2 3.73223 -1.76777 0 0 0 0
67 1 2 4.03054 -2.02254 0 0 0 0
68 1 2 4.36502 -2.22752 0 0 0 0
69 1 2 4.72746 -2.37764 0 0 0 0
70 1 2 5.10891 -2.46922 0 0 0 0
71 1 2 5.5 -2.5 0 0 0 0
72 1 2 5.89109 -2.46922 0 0 0 0
73 1 2 6.27254 -2.37764 0 0 0 0
74 1 2 6.63498 -2.22752 0 0 0 0
75 1 2 6.96946 -2.02254 0 0 0 0
76 1 2 7.26777 -1.76777 0 0 0 0
77 1 2 7.52254 -1.46946 0 0 0 0
78 1 2 7.72752 -1.13498 0 0 0 0
79 1 2 7.87764 -0.772543 0 0 0 0
80 1 2 7.96922 -0.391086 0 0 0 0
81 1 3 3.5 6.5 0.05 0.05 0 0
82 1 3 3.46922 6.89109 0.05 0.05 0 0
83 1 3 3.37764 7.27254 0.05 0.05 0 0
84 1 3 3.22752 7.63498 0.05 0.05 0 0
85 1 3 3.02254 7.96946 0.05 0.05 0 0
86 1 3 2.76777 8.26777 0.05 0.05 0 0
87 1 3 2.46946 8.52254 0.05 0.05 0 0
88 1 3 2.13498 8.72752 0.05 0.05 0 0
89 1 3 1.77254 8.87764 0.05 0.05 0 0
90 1 3 1.39109 8.96922 0.05 0.05 0 0
91 1 3 1 9 0.05 0.05 0 0
92 1 3 0.608914 8.96922 0.05 0.05 0 0
93 1 3 0.227458 8.87764 0.05 0.05 0 0
94 1 3 -0.134976 8.72752 0.05 0.05 0 0
95 1 3 -0.469463 8.52254 0.05 0.05 0 0
96 1 3 -0.767767 8.26777 0.05 0.05 0 0
97 1 3 -1.02254 7.96946 0.05 0.05 0 0
98 1 3 -1.22752 7.63498 0.05 0.05 0 0
99 1 3 -1.37764 7.27254 0.05 0.05 0 0
100 1 3 -1.46922 6.89109 0.05 0.05 0 0
101 1 3 -1.5 6.5 0.05 0.05 0 0
102 1 3 -1.46922 6.10891 0.05 0.05 0 0
103 1 3 -1.37764 5.72746 0.05 0.05 0 0
104 1 3 -1.22752 5.36502 0.05 0.05 0 0
105 1 3 -1.02254 5.03054 0.05 0.05 0 0
106 1 3 -0.767767 4.73223 0.05 0.05 0 0
107 1 3 -0.469463 4.47746 0.05 0.05 0 0
108 1 3 -0.134976 4.27248 0.05 0.05 0 0
109 1 3 0.227458 4.12236 0.05 0.05 0 0
110 1 3 0.608914 4.03078 0.05 0.05 0 0
111 1 3 1 4 0.05 0.05 0 0
112 1 3 1.39109 4.03078 0.05 0.05 0 0
113 1 3 1.77254 4.12236 0.05 0.05 0 0
114 1 3 2.13498 4.27248 0.05 0.05 0 0
115 1 3 2.46946 4.47746 0.05 0.05 0 0
116 1 3 2.76777 4.73223 0.05 0.05 0 0
117 1 3 3.02254 5.03054 0.05 0.05 0 0
118 1 3 3.22752 5.36502 0.05 0.05 0 0
119 1 3 3.37764 5.72746 0.05 0.05 0 0
120 1 3 3.46922 6.10891 0.05 0.05 0 0
121 1 4 2.5 -5.5 0 0 0 0
122 1 4 2.46922 -5.10891 0 0 0 0
123 1 4 2.37764 -4.72746 0 0 0 0
124 1 4 2.22752 -4.36502 0 0 0 0
125 1 4 2.02254 -4.03054 0 0 0 0
126 1 4 1.76777 -3.73223 0 0 0 0
127 1 4 1.46946 -3.47746 0 0 0 0
128 1 4 1.13498 -3.27248 0 0 0 0
129 1 4 0.772543 -3.12236 0 0 0 0
130 1 4 0.391086 -3.03078 0 0 0 0
131 1 4 1.53076e-16 -3 0 0 0 0
132 1 4 -0.391086 -3.03078 0 0 0 0
133 1 4 -0.772543 -3.12236 0 0 0 0
134 1 4 -1.13498 -3.27248 0 0 0 0
135 1 4 -1.46946 -3.47746 0 0 0 0
136 1 4 -1.76777 -3.73223 0 0 0 0
137 1 4 -2.02254 -4.03054 0 0 0 0
138 1 4 -2.22752 -4.36502 0 0 0 0
139 1 4 -2.37764 -4.72746 0 0 0 0
140 1 4 -2.46922 -5.10891 0 0 0 0
141 1 4 -2.5 -5.5 0 0 0 0
142 1 4 -2.46922 -5.89109 0 0 0 0
143 1 4 -2.37764 -6.27254 0 0 0 0
144 1 4 -2.22752 -6.63498 0 0 0 0
145 1 4 -2.02254 -6.96946 0 0 0 0
146 1 4 -1.76777 -7.26777 0 0 0 0
147 1 4 -1.46946 -7.52254 0 0 0 0
148 1 4 -1.13498 -7.72752 0 0 0 0
149 1 4 -0.772543 -7.87764 0 0 0 0
150 1 4 -0.391086 -7.96922 0 0 0 0
151 1 4 -4.59227e-16 -8 0 0 0 0
152 1 4 0.391086 -7.96922 0 0 0 0
153 1 4 0.772543 -7.87764 0 0 0 0
154 1 4 1.13498 -7.72752 0 0 0 0
155 1 4 1.46946 -7.52254 0 0 0 0
156 1 4 1.76777 -7.26777 0 0 0 0
157 1 4 2.02254 -6.96946 0 0 0 0
158 1 4 2.22752 -6.63498 0 0 0 0
159 1 4 2.37764 -6.27254 0 0 0 0
160 1 4 2.46922 -5.89109 0 0 0 0
ITEM: TIMESTEP
300
ITEM: NUMBER OF ATOMS
160
ITEM: BOX BOUNDS pp pp pp
-1.0500000000000000e+01 1.0500000000000000e+01
-1.0500000000000000e+01 1.0500000000000000e+01
-5.0000000000000000e-01 5.0000000000000000e-01
ITEM: ATOMS id type mol x y vx vy fx fy
1 1 1 -6.39488e-14 0.001 0.1 0 0 0
2 1 1 -0.030779 0.392086 0.1 0 0 0
3 1 1 -0.122359 0.773543 0.1 0 0 0
4 1 1 -0.272484 1.13598 0.1 0 0 0
5 1 1 -0.477458 1.47046 0.1 0 0 0
6 1 1 -0.732233 1.76877 0.1 0 0 0
7 1 1 -1.03054 2.02354 0.1 0 0 0
8 1 1 -1.36502 2.22852 0.1 0 0 0
9 1 1 -1.72746 2.37864 0.1 0 0 0
10 1 1 -2.10891 2.47022 0.1 0 0 0
11 1 1 -2.5 2.501 0.1 0 0 0
12 1 1 -2.89109 2.47022 0.1 0 0 0
13 1 1 -3.27254 2.37864 0.1 0 0 0
14 1 1 -3.63498 2.22852 0.1 0 0 0
15 1 1 -3.96946 2.02354 0.1 0 0 0
16 1 1 -4.26777 1.76877 0.1 0 0 0
17 1 1 -4.52254 1.47046 0.1 0 0 0
18 1 1 -4.72752 1.13598 0.1 0 0 0
19 1 1 -4.87764 0.773543 0.1 0 0 0
20 1 1 -4.96922 0.392086 0.1 0 0 0
21 1 1 -5 0.001 0.1 0 0 0
22 1 1 -4.96922 -0.390086 0.1 0 0 0
23 1 1 -4.87764 -0.771543 0.1 0 0 0
24 1 1 -4.72752 -1.13398 0.1 0 0 0
25 1 1 -4.52254 -1.46846 0.1 0 0 0
26 1 1 -4.26777 -1.76677 0.1 0 0 0
27 1 1 -3.96946 -2.02154 0.1 0 0 0
28 1 1 -3.63498 -2.22652 0.1 0 0 0
29 1 1 -3.27254 -2.37664 0.1 0 0 0
30 1 1 -2.89109 -2.46822 0.1 0 0 0
31 1 1 -2.5 -2.499 0.1 0 0 0
32 1 1 -2.10891 -2.46822 0.1 0 0 0
33 1 1 -1.72746 -2.37664 0.1 0 0 0
34 1 1 -1.36502 -2.22652 0.1 0 0 0
35 1 1 -1.03054 -2.02154 0.1 0 0 0
36 1 1 -0.732233 -1.76677 0.1 0 0 0
37 1 1 -0.477458 -1.46846 0.1 0 0 0
38 1 1 -0.272484 -1.13398 0.1 0 0 0
39 1 1 -0.122359 -0.771543 0.1 0 0 0
40 1 1 -0.030779 -0.390086 0.1 0 0 0
41 1 2 8 0 0 0 0 0
42 1 2 7.96922 0.391086 0 0 0 0
43 1 2 7.87764 0.772543 0 0 0 0
44 1 2 7.72752 1.13498 0 0 0 0
45 1 2 7.52254 1.46946 0 0 0 0
46 1 2 7.26777 1.76777 0 0 0 0
47 1 2 6.96946 2.02254 0 0 0 0
48 1 2 6.63498 2.22752 0 0 0 0
49 1 2 6.27254 2.37764 0 0 0 0
50 1 2 5.89109 2.46922 0 0 0 0
51 1 2 5.5 2.5 0 0 0 0
52 1 2 5.10891 2.46922 0 0 0 0
53 1 2 4.72746 2.37764 0 0 0 0
54 1 2 4.36502 2.22752 0 0 0 0
55 1 2 4.03054 2.02254 0 0 0 0
56 1 2 3.73223 1.76777 0 0 0 0
57 1 2 3.47746 1.46946 0 0 0 0
58 1 2 3.27248 1.13498 0 0 0 0
59 1 2 3.12236 0.772543 0 0 0 0
60 1 2 3.03078 0.391086 0 0 0 0
61 1 2 3 3.06152e-16 0 0 0 0
62 1 2 3.03078 -0.391086 0 0 0 0
63 1 2 3.12236 -0.772543 0 0 0 0
64 1 2 3.27248 -1.13498 0 0 0 0
65 1 2 3.47746 -1.46946 0 0 0 0
66 1 2 3.73223 -1.76777 0 0 0 0
67 1 2 4.03054 -2.02254 0 0 0 0
68 1 2 4.36502 -2.22752 0 0 0 0
69 1 2 4.72746 -2.37764 0 0 0 0
70 1 2 5.10891 -2.46922 0 0 0 0
71 1 2 5.5 -2.5 0 0 0 0
72 1 2 5.89109 -2.46922 0 0 0 0
73 1 2 6.27254 -2.37764 0 0 0 0
74 1 2 6.63498 -2.22752 0 0 0 0
75 1 2 6.96946 -2.02254 0 0 0 0
76 1 2 7.26777 -1.76777 0 0 0 0
77 1 2 7.52254 -1.46946 0 0 0 0
78 1 2 7.72752 -1.13498 0 0 0 0
79 1 2 7.87764 -0.772543 0 0 0 0
80 1 2 7.96922 -0.391086 0 0 0 0
81 1 3 4 7 0.05 0.05 0 0
82 1 3 3.96922 7.39109 0.05 0.05 0 0
83 1 3 3.87764 7.77254 0.05 0.05 0 0
84 1 3 3.72752 8.13498 0.05 0.05 0 0
85 1 3 3.52254 8.46946 0.05 0.05 0 0
86 1 3 3.26777 8.76777 0.05 0.05 0 0
87 1 3 2.96946 9.02254 0.05 0.05 0 0
88 1 3 2.63498 9.22752 0.05 0.05 0 0
89 1 3 2.27254 9.37764 0.05 0.05 0 0
90 1 3 1.89109 9.46922 0.05 0.05 0 0
91 1 3 1.5 9.5 0.05 0.05 0 0
92 1 3 1.10891 9.46922 0.05 0.05 0 0
93 1 3 0.727457 9.37764 0.05 0.05 0 0
94 1 3 0.365024 9.22752 0.05 0.05 0 0
95 1 3 0.030537 9.02254 0.05 0.05 0 0
96 1 3 -0.267767 8.76777 0.05 0.05 0 0
97 1 3 -0.522542 8.46946 0.05 0.05 0 0
98 1 3 -0.727516 8.13498 0.05 0.05 0 0
99 1 3 -0.877641 7.77254 0.05 0.05 0 0
100 1 3 -0.969221 7.39109 0.05 0.05 0 0
101 1 3 -1 7 0.05 0.05 0 0
102 1 3 -0.969221 6.60891 0.05 0.05 0 0
103 1 3 -0.877641 6.22746 0.05 0.05 0 0
104 1 3 -0.727516 5.86502 0.05 0.05 0 0
105 1 3 -0.522542 5.53054 0.05 0.05 0 0
106 1 3 -0.267767 5.23223 0.05 0.05 0 0
107 1 3 0.030537 4.97746 0.05 0.05 0 0
108 1 3 0.365024 4.77248 0.05 0.05 0 0
109 1 3 0.727457 4.62236 0.05 0.05 0 0
110 1 3 1.10891 4.53078 0.05 0.05 0 0
111 1 3 1.5 4.5 0.05 0.05 0 0
112 1 3 1.89109 4.53078 0.05 0.05 0 0
113 1 3 2.27254 4.62236 0.05 0.05 0 0
114 1 3 2.63498 4.77248 0.05 0.05 0 0
115 1 3 2.96946 4.97746 0.05 0.05 0 0
116 1 3 3.26777 5.23223 0.05 0.05 0 0
117 1 3 3.52254 5.53054 0.05 0.05 0 0
118 1 3 3.72752 5.86502 0.05 0.05 0 0
119 1 3 3.87764 6.22746 0.05 0.05 0 0
120 1 3 3.96922 6.60891 0.05 0.05 0 0
121 1 4 2.5 -5.5 0 0 0 0
122 1 4 2.46922 -5.10891 0 0 0 0
123 1 4 2.37764 -4.72746 0 0 0 0
124 1 4 2.22752 -4.36502 0 0 0 0
125 1 4 2.02254 -4.03054 0 0 0 0
126 1 4 1.76777 -3.73223 0 0 0 0
127 1 4 1.46946 -3.47746 0 0 0 0
128 1 4 1.13498 -3.27248 0 0 0 0
129 1 4 0.772543 -3.12236 0 0 0 0
130 1 4 0.391086 -3.03078 0 0 0 0
131 1 4 1.53076e-16 -3 0 0 0 0
132 1 4 -0.391086 -3.03078 0 0 0 0
133 1 4 -0.772543 -3.12236 0 0 0 0
134 1 4 -1.13498 -3.27248 0 0 0 0
135 1 4 -1.46946 -3.47746 0 0 0 0
136 1 4 -1.76777 -3.73223 0 0 0 0
137 1 4 -2.02254 -4.03054 0 0 0 0
138 1 4 -2.22752 -4.36502 0 0 0 0
139 1 4 -2.37764 -4.72746 0 0 0 0
140 1 4 -2.46922 -5.10891 0 0 0 0
141 1 4 -2.5 -5.5 0 0 0 0
142 1 4 -2.46922 -5.89109 0 0 0 0
143 1 4 -2.37764 -6.27254 0 0 0 0
144 1 4 -2.22752 -6.63498 0 0 0 0
145 1 4 -2.02254 -6.96946 0 0 0 0
146 1 4 -1.76777 -7.26777 0 0 0 0
147 1 4 -1.46946 -7.52254 0 0 0 0
148 1 4 -1.13498 -7.72752 0 0 0 0
149 1 4 -0.772543 -7.87764 0 0 0 0
150 1 4 -0.391086 -7.96922 0 0 0 0
151 1 4 -4.59227e-16 -8 0 0 0 0
152 1 4 0.391086 -7.96922 0 0 0 0
153 1 4 0.772543 -7.87764 0 0 0 0
154 1 4 1.13498 -7.72752 0 0 0 0
155 1 4 1.46946 -7.52254 0 0 0 0
156 1 4 1.76777 -7.26777 0 0 0 0
157 1 4 2.02254 -6.96946 0 0 0 0
158 1 4 2.22752 -6.63498 0 0 0 0
159 1 4 2.37764 -6.27254 0 0 0 0
160 1 4 2.46922 -5.89109 0 0 0 0
ITEM: TIMESTEP
400
ITEM: NUMBER OF ATOMS
160
ITEM: BOX BOUNDS pp pp pp
-1.0500000000000000e+01 1.0500000000000000e+01
-1.0500000000000000e+01 1.0500000000000000e+01
-5.0000000000000000e-01 5.0000000000000000e-01
ITEM: ATOMS id type mol x y vx vy fx fy
1 1 1 1 0.001 0.1 0 0 0
2 1 1 0.969221 0.392086 0.1 0 0 0
3 1 1 0.877641 0.773543 0.1 0 0 0
4 1 1 0.727516 1.13598 0.1 0 0 0
5 1 1 0.522542 1.47046 0.1 0 0 0
6 1 1 0.267767 1.76877 0.1 0 0 0
7 1 1 -0.030537 2.02354 0.1 0 0 0
8 1 1 -0.365024 2.22852 0.1 0 0 0
9 1 1 -0.727458 2.37864 0.1 0 0 0
10 1 1 -1.10891 2.47022 0.1 0 0 0
11 1 1 -1.5 2.501 0.1 0 0 0
12 1 1 -1.89109 2.47022 0.1 0 0 0
13 1 1 -2.27254 2.37864 0.1 0 0 0
14 1 1 -2.63498 2.22852 0.1 0 0 0
15 1 1 -2.96946 2.02354 0.1 0 0 0
16 1 1 -3.26777 1.76877 0.1 0 0 0
17 1 1 -3.52254 1.47046 0.1 0 0 0
18 1 1 -3.72752 1.13598 0.1 0 0 0
19 1 1 -3.87764 0.773543 0.1 0 0 0
20 1 1 -3.96922 0.392086 0.1 0 0 0
21 1 1 -4 0.001 0.1 0 0 0
22 1 1 -3.96922 -0.390086 0.1 0 0 0
23 1 1 -3.87764 -0.771543 0.1 0 0 0
24 1 1 -3.72752 -1.13398 0.1 0 0 0
25 1 1 -3.52254 -1.46846 0.1 0 0 0
26 1 1 -3.26777 -1.76677 0.1 0 0 0
27 1 1 -2.96946 -2.02154 0.1 0 0 0
28 1 1 -2.63498 -2.22652 0.1 0 0 0
29 1 1 -2.27254 -2.37664 0.1 0 0 0
30 1 1 -1.89109 -2.46822 0.1 0 0 0
31 1 1 -1.5 -2.499 0.1 0 0 0
32 1 1 -1.10891 -2.46822 0.1 0 0 0
33 1 1 -0.727458 -2.37664 0.1 0 0 0
34 1 1 -0.365024 -2.22652 0.1 0 0 0
35 1 1 -0.030537 -2.02154 0.1 0 0 0
36 1 1 0.267767 -1.76677 0.1 0 0 0
37 1 1 0.522542 -1.46846 0.1 0 0 0
38 1 1 0.727516 -1.13398 0.1 0 0 0
39 1 1 0.877641 -0.771543 0.1 0 0 0
40 1 1 0.969221 -0.390086 0.1 0 0 0
41 1 2 8 0 0 0 0 0
42 1 2 7.96922 0.391086 0 0 0 0
43 1 2 7.87764 0.772543 0 0 0 0
44 1 2 7.72752 1.13498 0 0 0 0
45 1 2 7.52254 1.46946 0 0 0 0
46 1 2 7.26777 1.76777 0 0 0 0
47 1 2 6.96946 2.02254 0 0 0 0
48 1 2 6.63498 2.22752 0 0 0 0
49 1 2 6.27254 2.37764 0 0 0 0
50 1 2 5.89109 2.46922 0 0 0 0
51 1 2 5.5 2.5 0 0 0 0
52 1 2 5.10891 2.46922 0 0 0 0
53 1 2 4.72746 2.37764 0 0 0 0
54 1 2 4.36502 2.22752 0 0 0 0
55 1 2 4.03054 2.02254 0 0 0 0
56 1 2 3.73223 1.76777 0 0 0 0
57 1 2 3.47746 1.46946 0 0 0 0
58 1 2 3.27248 1.13498 0 0 0 0
59 1 2 3.12236 0.772543 0 0 0 0
60 1 2 3.03078 0.391086 0 0 0 0
61 1 2 3 3.06152e-16 0 0 0 0
62 1 2 3.03078 -0.391086 0 0 0 0
63 1 2 3.12236 -0.772543 0 0 0 0
64 1 2 3.27248 -1.13498 0 0 0 0
65 1 2 3.47746 -1.46946 0 0 0 0
66 1 2 3.73223 -1.76777 0 0 0 0
67 1 2 4.03054 -2.02254 0 0 0 0
68 1 2 4.36502 -2.22752 0 0 0 0
69 1 2 4.72746 -2.37764 0 0 0 0
70 1 2 5.10891 -2.46922 0 0 0 0
71 1 2 5.5 -2.5 0 0 0 0
72 1 2 5.89109 -2.46922 0 0 0 0
73 1 2 6.27254 -2.37764 0 0 0 0
74 1 2 6.63498 -2.22752 0 0 0 0
75 1 2 6.96946 -2.02254 0 0 0 0
76 1 2 7.26777 -1.76777 0 0 0 0
77 1 2 7.52254 -1.46946 0 0 0 0
78 1 2 7.72752 -1.13498 0 0 0 0
79 1 2 7.87764 -0.772543 0 0 0 0
80 1 2 7.96922 -0.391086 0 0 0 0
81 1 3 4.5 7.5 0.05 0.05 0 0
82 1 3 4.46922 7.89109 0.05 0.05 0 0
83 1 3 4.37764 8.27254 0.05 0.05 0 0
84 1 3 4.22752 8.63498 0.05 0.05 0 0
85 1 3 4.02254 8.96946 0.05 0.05 0 0
86 1 3 3.76777 9.26777 0.05 0.05 0 0
87 1 3 3.46946 9.52254 0.05 0.05 0 0
88 1 3 3.13498 9.72752 0.05 0.05 0 0
89 1 3 2.77254 9.87764 0.05 0.05 0 0
90 1 3 2.39109 9.96922 0.05 0.05 0 0
91 1 3 2 10 0.05 0.05 0 0
92 1 3 1.60891 9.96922 0.05 0.05 0 0
93 1 3 1.22746 9.87764 0.05 0.05 0 0
94 1 3 0.865024 9.72752 0.05 0.05 0 0
95 1 3 0.530537 9.52254 0.05 0.05 0 0
96 1 3 0.232233 9.26777 0.05 0.05 0 0
97 1 3 -0.022542 8.96946 0.05 0.05 0 0
98 1 3 -0.227516 8.63498 0.05 0.05 0 0
99 1 3 -0.377641 8.27254 0.05 0.05 0 0
100 1 3 -0.469221 7.89109 0.05 0.05 0 0
101 1 3 -0.5 7.5 0.05 0.05 0 0
102 1 3 -0.469221 7.10891 0.05 0.05 0 0
103 1 3 -0.377641 6.72746 0.05 0.05 0 0
104 1 3 -0.227516 6.36502 0.05 0.05 0 0
105 1 3 -0.022542 6.03054 0.05 0.05 0 0
106 1 3 0.232233 5.73223 0.05 0.05 0 0
107 1 3 0.530537 5.47746 0.05 0.05 0 0
108 1 3 0.865024 5.27248 0.05 0.05 0 0
109 1 3 1.22746 5.12236 0.05 0.05 0 0
110 1 3 1.60891 5.03078 0.05 0.05 0 0
111 1 3 2 5 0.05 0.05 0 0
112 1 3 2.39109 5.03078 0.05 0.05 0 0
113 1 3 2.77254 5.12236 0.05 0.05 0 0
114 1 3 3.13498 5.27248 0.05 0.05 0 0
115 1 3 3.46946 5.47746 0.05 0.05 0 0
116 1 3 3.76777 5.73223 0.05 0.05 0 0
117 1 3 4.02254 6.03054 0.05 0.05 0 0
118 1 3 4.22752 6.36502 0.05 0.05 0 0
119 1 3 4.37764 6.72746 0.05 0.05 0 0
120 1 3 4.46922 7.10891 0.05 0.05 0 0
121 1 4 2.5 -5.5 0 0 0 0
122 1 4 2.46922 -5.10891 0 0 0 0
123 1 4 2.37764 -4.72746 0 0 0 0
124 1 4 2.22752 -4.36502 0 0 0 0
125 1 4 2.02254 -4.03054 0 0 0 0
126 1 4 1.76777 -3.73223 0 0 0 0
127 1 4 1.46946 -3.47746 0 0 0 0
128 1 4 1.13498 -3.27248 0 0 0 0
129 1 4 0.772543 -3.12236 0 0 0 0
130 1 4 0.391086 -3.03078 0 0 0 0
131 1 4 1.53076e-16 -3 0 0 0 0
132 1 4 -0.391086 -3.03078 0 0 0 0
133 1 4 -0.772543 -3.12236 0 0 0 0
134 1 4 -1.13498 -3.27248 0 0 0 0
135 1 4 -1.46946 -3.47746 0 0 0 0
136 1 4 -1.76777 -3.73223 0 0 0 0
137 1 4 -2.02254 -4.03054 0 0 0 0
138 1 4 -2.22752 -4.36502 0 0 0 0
139 1 4 -2.37764 -4.72746 0 0 0 0
140 1 4 -2.46922 -5.10891 0 0 0 0
141 1 4 -2.5 -5.5 0 0 0 0
142 1 4 -2.46922 -5.89109 0 0 0 0
143 1 4 -2.37764 -6.27254 0 0 0 0
144 1 4 -2.22752 -6.63498 0 0 0 0
145 1 4 -2.02254 -6.96946 0 0 0 0
146 1 4 -1.76777 -7.26777 0 0 0 0
147 1 4 -1.46946 -7.52254 0 0 0 0
148 1 4 -1.13498 -7.72752 0 0 0 0
149 1 4 -0.772543 -7.87764 0 0 0 0
150 1 4 -0.391086 -7.96922 0 0 0 0
151 1 4 -4.59227e-16 -8 0 0 0 0
152 1 4 0.391086 -7.96922 0 0 0 0
153 1 4 0.772543 -7.87764 0 0 0 0
154 1 4 1.13498 -7.72752 0 0 0 0
155 1 4 1.46946 -7.52254 0 0 0 0
156 1 4 1.76777 -7.26777 0 0 0 0
157 1 4 2.02254 -6.96946 0 0 0 0
158 1 4 2.22752 -6.63498 0 0 0 0
159 1 4 2.37764 -6.27254 0 0 0 0
160 1 4 2.46922 -5.89109 0 0 0 0
ITEM: TIMESTEP
500
ITEM: NUMBER OF ATOMS
160
ITEM: BOX BOUNDS pp pp pp
-1.0500000000000000e+01 1.0500000000000000e+01
-1.0500000000000000e+01 1.0500000000000000e+01
-5.0000000000000000e-01 5.0000000000000000e-01
ITEM: ATOMS id type mol x y vx vy fx fy
1 1 1 2 0.001 0.1 0 0 0
2 1 1 1.96922 0.392086 0.1 0 0 0
3 1 1 1.87764 0.773543 0.1 0 0 0
4 1 1 1.72752 1.13598 0.1 0 0 0
5 1 1 1.52254 1.47046 0.1 0 0 0
6 1 1 1.26777 1.76877 0.1 0 0 0
7 1 1 0.969463 2.02354 0.1 0 0 0
8 1 1 0.634976 2.22852 0.1 0 0 0
9 1 1 0.272542 2.37864 0.1 0 0 0
10 1 1 -0.108914 2.47022 0.1 0 0 0
11 1 1 -0.5 2.501 0.1 0 0 0
12 1 1 -0.891086 2.47022 0.1 0 0 0
13 1 1 -1.27254 2.37864 0.1 0 0 0
14 1 1 -1.63498 2.22852 0.1 0 0 0
15 1 1 -1.96946 2.02354 0.1 0 0 0
16 1 1 -2.26777 1.76877 0.1 0 0 0
17 1 1 -2.52254 1.47046 0.1 0 0 0
18 1 1 -2.72752 1.13598 0.1 0 0 0
19 1 1 -2.87764 0.773543 0.1 0 0 0
20 1 1 -2.96922 0.392086 0.1 0 0 0
21 1 1 -3 0.001 0.1 0 0 0
22 1 1 -2.96922 -0.390086 0.1 0 0 0
23 1 1 -2.87764 -0.771543 0.1 0 0 0
24 1 1 -2.72752 -1.13398 0.1 0 0 0
25 1 1 -2.52254 -1.46846 0.1 0 0 0
26 1 1 -2.26777 -1.76677 0.1 0 0 0
27 1 1 -1.96946 -2.02154 0.1 0 0 0
28 1 1 -1.63498 -2.22652 0.1 0 0 0
29 1 1 -1.27254 -2.37664 0.1 0 0 0
30 1 1 -0.891086 -2.46822 0.1 0 0 0
31 1 1 -0.5 -2.499 0.1 0 0 0
32 1 1 -0.108914 -2.46822 0.1 0 0 0
33 1 1 0.272542 -2.37664 0.1 0 0 0
34 1 1 0.634976 -2.22652 0.1 0 0 0
35 1 1 0.969463 -2.02154 0.1 0 0 0
36 1 1 1.26777 -1.76677 0.1 0 0 0
37 1 1 1.52254 -1.46846 0.1 0 0 0
38 1 1 1.72752 -1.13398 0.1 0 0 0
39 1 1 1.87764 -0.771543 0.1 0 0 0
40 1 1 1.96922 -0.390086 0.1 0 0 0
41 1 2 8 0 0 0 0 0
42 1 2 7.96922 0.391086 0 0 0 0
43 1 2 7.87764 0.772543 0 0 0 0