LAMMPS (10 Sep 2025 - Development - patch_10Sep2025-800-gfd046c3b2f-modified)
units lj
dimension 2
boundary p p p
atom_style ls/dem
comm_modify vel yes cutoff 12.0
atom_modify map yes
newton off

region             box block -10.5 10.5 -10.5 10.5 -0.5 0.5 units box
create_box         1 box
Created orthogonal box = (-10.5 -10.5 -0.5) to (10.5 10.5 0.5)
  1 by 1 by 1 MPI processor grid

mass * 1.0

read_data data_disk add 0 0 shift -5.5 0.001 0.0
Reading data file ...
  orthogonal box = (-10.5 -10.5 -0.5) to (10.5 10.5 0.5)
  1 by 1 by 1 MPI processor grid
  reading atoms ...
  40 atoms
  read_data CPU = 0.003 seconds
read_data data_disk add 40 1 shift +5.5 0.0 0.0
Reading data file ...
  orthogonal box = (-10.5 -10.5 -0.5) to (10.5 10.5 0.5)
  1 by 1 by 1 MPI processor grid
  reading atoms ...
  40 atoms
  read_data CPU = 0.003 seconds
read_data data_disk add 80 2 shift 0.0 +5.5 0.0
Reading data file ...
  orthogonal box = (-10.5 -10.5 -0.5) to (10.5 10.5 0.5)
  1 by 1 by 1 MPI processor grid
  reading atoms ...
  40 atoms
  read_data CPU = 0.003 seconds
read_data data_disk add 120 3 shift 0.0 -5.5 0.0
Reading data file ...
  orthogonal box = (-10.5 -10.5 -0.5) to (10.5 10.5 0.5)
  1 by 1 by 1 MPI processor grid
  reading atoms ...
  40 atoms
  read_data CPU = 0.003 seconds

group           grain1 molecule 1
40 atoms in group grain1
group           grain2 molecule 2
40 atoms in group grain2
group           grain3 molecule 3
40 atoms in group grain3
group           grain4 molecule 4
40 atoms in group grain4

neigh_modify   exclude molecule/intra all

fix             1 all rigid/ls/dem molecule infile infile_disk
  4 rigid bodies with 160 atoms
fix             2 all enforce2d

pair_style ls/dem 1.0
pair_coeff * * 1.0 0.5 0.1 0 0 0 1.0 0 0 0 0

thermo_style custom step  pxx pyy
timestep 0.1

thermo 100
dump mydump all custom 100 atomDump_disk id type mol x y vx vy fx fy
dump_modify mydump sort id

run 50000  # 500000
Generated 0 of 0 mixed pair_coeff terms from geometric mixing rule
Reading rigid body data for 4 bodies from file infile_disk
Reading ls/dem grid data for body 0 from file grid_disk.txt
Reading ls/dem grid data for body 1 from file grid_disk.txt
Reading ls/dem grid data for body 2 from file grid_disk.txt
Reading ls/dem grid data for body 3 from file grid_disk.txt
Neighbor list info ...
  update: every = 1 steps, delay = 0 steps, check = yes
  max neighbors/atom: 2000, page size: 100000
  master list distance cutoff = 1.3
  ghost atom cutoff = 12
  binsize = 0.65, bins = 33 33 2
  1 neighbor lists, perpetual/occasional/extra = 1 0 0
  (1) pair ls/dem, perpetual
      attributes: half, newton off, ghost
      pair build: half/bin/ghost/newtoff
      stencil: full/ghost/bin/2d
      bin: standard
Per MPI rank memory allocation (min/avg/max) = 6.828 | 6.828 | 6.828 Mbytes
   Step          Pxx            Pyy      
         0  -0.99659864     0.49909297   
       100   0.0011337868   0.00022675737
       200   0.0011337868   0.00022675737
       300   0.0011337868   0.00022675737
       400   0.0011337868   0.00022675737
       500   0.0011337868   0.00022675737
       600   0.0011337868   0.00022675737
       700   0.0011292643   0.00022680852
       800   0.0011292643   0.00022680852
       900   0.0011292643   0.00022680852
      1000   0.0011292643   0.00022680852
      1100   0.0011292643   0.00022680852
      1200   0.0011292643   0.00022680852
      1300   0.0011292643   0.00022680852
      1400   0.0011292643   0.00022680852
      1500   0.0011292643   0.00022680852
      1600   0.0011292643   0.00022680852
      1700   0.0011292643   0.00022680852
      1800   0.0011280124   0.00022800713
      1900   0.0011280124   0.00022800713
      2000   0.0011280124   0.00022800713
      2100   0.0011280124   0.00022800713
      2200   0.0011280124   0.00022800713
      2300   0.0011280124   0.00022800713
      2400   0.0011280124   0.00022800713
      2500   0.0011280124   0.00022800713
      2600   0.00076451966  0.00048761142
      2700   0.00076451966  0.00048761142
      2800   0.00076451966  0.00048761142
      2900   0.00076451966  0.00048761142
      3000   0.00076451966  0.00048761142
      3100   0.01682011     0.0011462404 
      3200   0.00080806812  0.00042185451
      3300   0.00080806812  0.00042185451
      3400   0.00080806812  0.00042185451
      3500   0.00080806812  0.00042185451
      3600   0.00080806812  0.00042185451
      3700   0.00080806812  0.00042185451
      3800   0.00080806812  0.00042185451
      3900   0.00080806812  0.00042185451
      4000   0.00080806812  0.00042185451
      4100   0.00080806812  0.00042185451
      4200   0.00080806812  0.00042185451
      4300   0.00080806812  0.00042185451
      4400   0.00080806812  0.00042185451
      4500   0.00087922347  0.00037019   
      4600   0.00055912963  0.00062969021
      4700   0.00055912963  0.00062969021
      4800   0.00055912963  0.00062969021
      4900   0.00051540395  0.00066395927
      5000   0.00051540395  0.00066395927
      5100   0.00051540395  0.00066395927
      5200   0.00051540395  0.00066395927
      5300   0.00051540395  0.00066395927
      5400   0.00051540395  0.00066395927
      5500   0.00051540395  0.00066395927
      5600   0.00051540395  0.00066395927
      5700   0.00051540395  0.00066395927
      5800   0.00081201116  0.00028924426
      5900   0.00081201116  0.00028924426
      6000   0.00081201116  0.00028924426
      6100   0.0012694623   0.0060939629 
      6200   0.00073121979  0.00034301023
      6300   0.00073121979  0.00034301023
      6400   0.00073121979  0.00034301023
      6500   0.00073121979  0.00034301023
      6600   0.00073121979  0.00034301023
      6700   0.00073121979  0.00034301023
      6800   0.0013139399  -0.031916881  
      6900   0.00068241467  0.00037606676
      7000   0.00068241467  0.00037606676
      7100   0.00068241467  0.00037606676
      7200   0.00068241467  0.00037606676
      7300   0.00068241467  0.00037606676
      7400   0.00068241467  0.00037606676
      7500   0.00087914891  0.0022507575 
      7600   0.0007149748   0.00032303525
      7700   0.0061209416   0.00061523681
      7800   0.0006127851   0.00038818055
      7900   0.0006127851   0.00038818055
      8000   0.0006127851   0.00038818055
      8100   0.0006127851   0.00038818055
      8200   0.0006127851   0.00038818055
      8300   0.0006127851   0.00038818055
      8400   0.0006127851   0.00038818055
      8500   0.0006127851   0.00038818055
      8600   0.0006127851   0.00038818055
      8700   0.0006127851   0.00038818055
      8800   0.0006127851   0.00038818055
      8900   0.0006127851   0.00038818055
      9000   0.00067042236  0.0003560431 
      9100   0.0018305489   0.00049846956
      9200   0.00069908118  0.00031671843
      9300   0.00069908118  0.00031671843
      9400   0.00069908118  0.00031671843
      9500   0.00069908118  0.00031671843
      9600   0.00069908118  0.00031671843
      9700   0.00069908118  0.00031671843
      9800   0.00069908118  0.00031671843
      9900   0.00069908118  0.00031671843
     10000   0.00069908118  0.00031671843
     10100   0.00069908118  0.00031671843
     10200   0.00069908118  0.00031671843
     10300   0.00069908118  0.00031671843
     10400   0.00069908118  0.00031671843
     10500   0.00069908118  0.00031671843
     10600   0.00069908118  0.00031671843
     10700   0.00054496348  0.00042655617
     10800   0.00054496348  0.00042655617
     10900   0.00054496348  0.00042655617
     11000   0.00063843878  0.0021610963 
     11100   0.0005523163   0.00043408118
     11200   0.0005523163   0.00043408118
     11300   0.0005523163   0.00043408118
     11400   0.0005523163   0.00043408118
     11500   0.0005523163   0.00043408118
     11600   0.0005523163   0.00043408118
     11700   0.0005523163   0.00043408118
     11800   0.00074390567  0.00026606797
     11900   0.00074041674  0.0002540772 
     12000   0.00074041674  0.0002540772 
     12100   0.00074041674  0.0002540772 
     12200   0.00074041674  0.0002540772 
     12300   0.00074041674  0.0002540772 
     12400   0.00074041674  0.0002540772 
     12500   0.00074041674  0.0002540772 
     12600   0.00074041674  0.0002540772 
     12700   0.00074041674  0.0002540772 
     12800   0.00074041674  0.0002540772 
     12900   0.00074041674  0.0002540772 
     13000   0.00071001813  0.00027312937
     13100   0.00071001813  0.00027312937
     13200   0.00071001813  0.00027312937
     13300   0.00071001813  0.00027312937
     13400   0.0054487232   0.0022055569 
     13500   0.00059776944  0.00036627325
     13600   0.00059776944  0.00036627325
     13700   0.00075011588  0.00017891027
     13800   0.00075011588  0.00017891027
     13900   0.00075011588  0.00017891027
     14000   0.00075011588  0.00017891027
     14100   0.00075011588  0.00017891027
     14200   0.00075011588  0.00017891027
     14300   0.00075011588  0.00017891027
     14400   0.00075011588  0.00017891027
     14500   0.00075011588  0.00017891027
     14600   0.0013174937   0.0013275785 
     14700   0.00064964316  0.00025474008
     14800   0.00064964316  0.00025474008
     14900   0.00064964316  0.00025474008
     15000   0.00064964316  0.00025474008
     15100   0.00064964316  0.00025474008
     15200   0.00064964316  0.00025474008
     15300   0.00064964316  0.00025474008
     15400   0.00064964316  0.00025474008
     15500   0.00064964316  0.00025474008
     15600   0.00064964316  0.00025474008
     15700   0.00064964316  0.00025474008
     15800   0.00064964316  0.00025474008
     15900   0.00064964316  0.00025474008
     16000   0.00064964316  0.00025474008
     16100   0.00064964316  0.00025474008
     16200   0.00064964316  0.00025474008
     16300   0.00064964316  0.00025474008
     16400   0.00064964316  0.00025474008
     16500   0.00064964316  0.00025474008
     16600   0.00060109095  0.00029343529
     16700   0.00060109095  0.00029343529
     16800   0.00070554937  0.00020013081
     16900   0.00070554937  0.00020013081
     17000   0.00070554937  0.00020013081
     17100   0.00070554937  0.00020013081
     17200   0.00070554937  0.00020013081
     17300   0.00070554937  0.00020013081
     17400   0.00070554937  0.00020013081
     17500   0.00070554937  0.00020013081
     17600   0.00070554937  0.00020013081
     17700   0.00070554937  0.00020013081
     17800   0.00070554937  0.00020013081
     17900   0.00070554937  0.00020013081
     18000   0.00070554937  0.00020013081
     18100   0.00070554937  0.00020013081
     18200   0.00070554937  0.00020013081
     18300   0.00070554937  0.00020013081
     18400   0.00070554937  0.00020013081
     18500   0.00070554937  0.00020013081
     18600   0.00070554937  0.00020013081
     18700   0.00070554937  0.00020013081
     18800   0.00073735152  0.00015697391
     18900   0.00073735152  0.00015697391
     19000   0.00073735152  0.00015697391
     19100   0.00073735152  0.00015697391
     19200   0.00073735152  0.00015697391
     19300   0.00073735152  0.00015697391
     19400   0.00073735152  0.00015697391
     19500   0.00073735152  0.00015697391
     19600   0.00073735152  0.00015697391
     19700   0.00073735152  0.00015697391
     19800   0.0065426209   0.002175441  
     19900   0.00053854921 -0.0017848145 
     20000   0.00053435686  0.00030147697
     20100   0.00053435686  0.00030147697
     20200   0.00053435686  0.00030147697
     20300   0.00053435686  0.00030147697
     20400   0.00053435686  0.00030147697
     20500   0.00053435686  0.00030147697
     20600   0.00053435686  0.00030147697
     20700   0.00053435686  0.00030147697
     20800   0.00053435686  0.00030147697
     20900   0.00053435686  0.00030147697
     21000   0.00053435686  0.00030147697
     21100   0.00053435686  0.00030147697
     21200   0.00053435686  0.00030147697
     21300   0.00053435686  0.00030147697
     21400   0.00053435686  0.00030147697
     21500   0.00053435686  0.00030147697
     21600   0.00053435686  0.00030147697
     21700   0.00053435686  0.00030147697
     21800   0.00053435686  0.00030147697
     21900   0.00097582643  0.00033154307
     22000   0.00057726532  0.00023062538
     22100   0.00057726532  0.00023062538
     22200   0.00057726532  0.00023062538
     22300   0.00057726532  0.00023062538
     22400   0.00057726532  0.00023062538
     22500   0.00057726532  0.00023062538
     22600   0.00057726532  0.00023062538
     22700   0.00057726532  0.00023062538
     22800   0.00057726532  0.00023062538
     22900   0.00057726532  0.00023062538
     23000   0.00057726532  0.00023062538
     23100   0.00057726532  0.00023062538
     23200   0.00057726532  0.00023062538
     23300   0.00057726532  0.00023062538
     23400   0.0011716738   0.00052641389
     23500   0.00053796288  0.00026130347
     23600   0.00053796288  0.00026130347
     23700   0.00053796288  0.00026130347
     23800   0.00053796288  0.00026130347
     23900   0.00053796288  0.00026130347
     24000   0.00053796288  0.00026130347
     24100   0.00053796288  0.00026130347
     24200   0.00065861673  0.00011637252
     24300   0.00065861673  0.00011637252
     24400   0.00065861673  0.00011637252
     24500   0.00065861673  0.00011637252
     24600   0.0028253409   0.0068743642 
     24700   0.00058879206  0.00017260746
     24800   0.00058879206  0.00017260746
     24900   0.00058879206  0.00017260746
     25000   0.00058879206  0.00017260746
     25100   0.00058879206  0.00017260746
     25200   0.00058879206  0.00017260746
     25300   0.00057444818  0.00018532994
     25400   0.00057444818  0.00018532994
     25500   0.00057444818  0.00018532994
     25600   0.00057444818  0.00018532994
     25700   0.00057444818  0.00018532994
     25800   0.00057444818  0.00018532994
     25900   0.00057444818  0.00018532994
     26000   0.00057444818  0.00018532994
     26100   0.00057444818  0.00018532994
     26200   0.00057444818  0.00018532994
     26300   0.00057444818  0.00018532994
     26400   0.00057444818  0.00018532994
     26500   0.00057444818  0.00018532994
     26600   0.00057444818  0.00018532994
     26700   0.00057444818  0.00018532994
     26800   0.00057444818  0.00018532994
     26900   0.00057444818  0.00018532994
     27000   0.0079190056   0.00021891905
     27100   0.00056474375  0.00015753419
     27200   0.00056474375  0.00015753419
     27300   0.00056474375  0.00015753419
     27400   0.00056474375  0.00015753419
     27500   0.00056474375  0.00015753419
     27600   0.00056474375  0.00015753419
     27700   0.00054062477  0.00015577037
     27800   0.00054062477  0.00015577037
     27900   0.00054062477  0.00015577037
     28000   0.00054062477  0.00015577037
     28100   0.00054062477  0.00015577037
     28200   0.00054062477  0.00015577037
     28300   0.00054062477  0.00015577037
     28400   0.00054062477  0.00015577037
     28500   0.00054062477  0.00015577037
     28600   0.00054062477  0.00015577037
     28700   0.00054062477  0.00015577037
     28800   0.00054062477  0.00015577037
     28900   0.00054062477  0.00015577037
     29000   0.00054062477  0.00015577037
     29100   0.00054062477  0.00015577037
     29200   0.00054062477  0.00015577037
     29300   0.00054062477  0.00015577037
     29400   0.00054062477  0.00015577037
     29500   0.00054062477  0.00015577037
     29600   0.00054062477  0.00015577037
     29700   0.00054062477  0.00015577037
     29800   0.00054062477  0.00015577037
     29900   0.00054062477  0.00015577037
     30000   0.00054062477  0.00015577037
     30100   0.00054062477  0.00015577037
     30200   0.00054062477  0.00015577037
     30300   0.00054062477  0.00015577037
     30400   0.00054062477  0.00015577037
     30500   0.00054062477  0.00015577037
     30600   0.00054062477  0.00015577037
     30700   0.00054062477  0.00015577037
     30800   0.00054062477  0.00015577037
     30900   0.00054062477  0.00015577037
     31000   0.00054062477  0.00015577037
     31100   0.00054062477  0.00015577037
     31200   0.00054062477  0.00015577037
     31300   0.00054062477  0.00015577037
     31400   0.00054062477  0.00015577037
     31500   0.00054062477  0.00015577037
     31600   0.00054062477  0.00015577037
     31700   0.00054062477  0.00015577037
     31800   0.00054062477  0.00015577037
     31900   0.00054062477  0.00015577037
     32000   0.00054062477  0.00015577037
     32100   0.00054062477  0.00015577037
     32200   0.00054062477  0.00015577037
     32300   0.00054062477  0.00015577037
     32400   0.00054062477  0.00015577037
     32500   0.00054062477  0.00015577037
     32600   0.00054062477  0.00015577037
     32700   0.00054062477  0.00015577037
     32800   0.00054062477  0.00015577037
     32900   0.00054062477  0.00015577037
     33000   0.00054062477  0.00015577037
     33100   0.00054062477  0.00015577037
     33200   0.00054062477  0.00015577037
     33300   0.00054062477  0.00015577037
     33400   0.00054062477  0.00015577037
     33500   0.00054062477  0.00015577037
     33600   0.00054062477  0.00015577037
     33700   0.00054062477  0.00015577037
     33800   0.00054062477  0.00015577037
     33900   0.00054062477  0.00015577037
     34000   0.00054062477  0.00015577037
     34100   0.0052085809   0.0020250237 
     34200   0.00059794621  0.00011762682
     34300   0.00059794621  0.00011762682
     34400   0.00059794621  0.00011762682
     34500   0.00062404824  8.8864781e-05
     34600   0.00062404824  8.8864781e-05
     34700   0.00062404824  8.8864781e-05
     34800   0.00062404824  8.8864781e-05
     34900   0.00062404824  8.8864781e-05
     35000   0.00062404824  8.8864781e-05
     35100   0.00062404824  8.8864781e-05
     35200   0.00062404824  8.8864781e-05
     35300   0.00062404824  8.8864781e-05
     35400   0.00062404824  8.8864781e-05
     35500   0.00062404824  8.8864781e-05
     35600   0.00062404824  8.8864781e-05
     35700   0.00062404824  8.8864781e-05
     35800   0.00062404824  8.8864781e-05
     35900   0.00062404824  8.8864781e-05
     36000   0.0076377976   0.0015614377 
     36100   0.00061833609  9.7229617e-05
     36200   0.00061833609  9.7229617e-05
     36300   0.00061833609  9.7229617e-05
     36400   0.00061833609  9.7229617e-05
     36500   0.00061833609  9.7229617e-05
     36600   0.00061833609  9.7229617e-05
     36700   0.00061833609  9.7229617e-05
     36800   0.00061833609  9.7229617e-05
     36900   0.00061833609  9.7229617e-05
     37000   0.00061833609  9.7229617e-05
     37100   0.00061833609  9.7229617e-05
     37200   0.00061815205  9.6502249e-05
     37300   0.00061815205  9.6502249e-05
     37400   0.00061815205  9.6502249e-05
     37500   0.00061815205  9.6502249e-05
     37600   0.00061815205  9.6502249e-05
     37700   0.00061815205  9.6502249e-05
     37800   0.00061815205  9.6502249e-05
     37900   0.00061815205  9.6502249e-05
     38000   0.00061815205  9.6502249e-05
     38100   0.00061815205  9.6502249e-05
     38200   0.00061815205  9.6502249e-05
     38300   0.00061815205  9.6502249e-05
     38400   0.00061815205  9.6502249e-05
     38500   0.00061815205  9.6502249e-05
     38600   0.00061815205  9.6502249e-05
     38700   0.00061815205  9.6502249e-05
     38800   0.00061815205  9.6502249e-05
     38900   0.00061815205  9.6502249e-05
     39000   0.00061815205  9.6502249e-05
     39100   0.00061815205  9.6502249e-05
     39200   0.00061815205  9.6502249e-05
     39300   0.00061815205  9.6502249e-05
     39400   0.00061815205  9.6502249e-05
     39500   0.00061815205  9.6502249e-05
     39600   0.00061815205  9.6502249e-05
     39700   0.00061815205  9.6502249e-05
     39800   0.00061815205  9.6502249e-05
     39900   0.00061815205  9.6502249e-05
     40000   0.00061815205  9.6502249e-05
     40100   0.00061815205  9.6502249e-05
     40200   0.00061815205  9.6502249e-05
     40300   0.00061815205  9.6502249e-05
     40400   0.00061815205  9.6502249e-05
     40500   0.00061815205  9.6502249e-05
     40600   0.00061815205  9.6502249e-05
     40700   0.00061815205  9.6502249e-05
     40800   0.00061815205  9.6502249e-05
     40900   0.00061815205  9.6502249e-05
     41000   0.00061815205  9.6502249e-05
     41100   0.00061815205  9.6502249e-05
     41200   0.00061815205  9.6502249e-05
     41300   0.00061815205  9.6502249e-05
     41400   0.00061815205  9.6502249e-05
     41500   0.00061815205  9.6502249e-05
     41600   0.00060335652  0.00011066655
     41700   0.00060335652  0.00011066655
     41800   0.00060335652  0.00011066655
     41900   0.00060335652  0.00011066655
     42000   0.00060335652  0.00011066655
     42100   0.00054030856  0.00015878839
     42200   0.00054030856  0.00015878839
     42300   0.00054030856  0.00015878839
     42400   0.00054030856  0.00015878839
     42500   0.00054030856  0.00015878839
     42600   0.00054030856  0.00015878839
     42700   0.00054030856  0.00015878839
     42800   0.00054030856  0.00015878839
     42900   0.00054030856  0.00015878839
     43000   0.00054477224  0.0001516816 
     43100   0.00054477224  0.0001516816 
     43200   0.00054477224  0.0001516816 
     43300   0.00054477224  0.0001516816 
     43400   0.00054477224  0.0001516816 
     43500   0.00054477224  0.0001516816 
     43600   0.00054477224  0.0001516816 
     43700   0.00054477224  0.0001516816 
     43800   0.00054477224  0.0001516816 
     43900   0.00054477224  0.0001516816 
     44000   0.00054477224  0.0001516816 
     44100   0.00054477224  0.0001516816 
     44200   0.00054477224  0.0001516816 
     44300   0.00054477224  0.0001516816 
     44400   0.00054477224  0.0001516816 
     44500   0.00054477224  0.0001516816 
     44600   0.00054477224  0.0001516816 
     44700   0.00054477224  0.0001516816 
     44800   0.00054477224  0.0001516816 
     44900   0.00054477224  0.0001516816 
     45000   0.00054477224  0.0001516816 
     45100   0.0025798851  -0.0078337273 
     45200   0.00061101538  6.9454809e-05
     45300   0.00061101538  6.9454809e-05
     45400   0.00061101538  6.9454809e-05
     45500   0.00061101538  6.9454809e-05
     45600   0.00053096911  0.0001352976 
     45700   0.00053096911  0.0001352976 
     45800   0.00053096911  0.0001352976 
     45900   0.00053096911  0.0001352976 
     46000   0.00053096911  0.0001352976 
     46100   0.00053756986  0.00012044256
     46200   0.00053756986  0.00012044256
     46300   0.00053756986  0.00012044256
     46400   0.00053756986  0.00012044256
     46500   0.00053756986  0.00012044256
     46600   0.00053756986  0.00012044256
     46700   0.00053756986  0.00012044256
     46800   0.00053756986  0.00012044256
     46900   0.00053756986  0.00012044256
     47000   0.00053756986  0.00012044256
     47100   0.00053756986  0.00012044256
     47200   0.00053756986  0.00012044256
     47300   0.00053756986  0.00012044256
     47400   0.00053756986  0.00012044256
     47500   0.00053756986  0.00012044256
     47600   0.00053756986  0.00012044256
     47700   0.00053756986  0.00012044256
     47800   0.00053756986  0.00012044256
     47900   0.00052441318  0.00013094153
     48000   0.00052441318  0.00013094153
     48100   0.00052441318  0.00013094153
     48200   0.00052441318  0.00013094153
     48300   0.00052441318  0.00013094153
     48400   0.00052441318  0.00013094153
     48500   0.00052441318  0.00013094153
     48600   0.00052441318  0.00013094153
     48700   0.00052441318  0.00013094153
     48800   0.00052441318  0.00013094153
     48900   0.00052441318  0.00013094153
     49000   0.00052441318  0.00013094153
     49100   0.00052441318  0.00013094153
     49200   0.00056619537  7.5712587e-05
     49300   0.00056619537  7.5712587e-05
     49400   0.00056619537  7.5712587e-05
     49500   0.00056619537  7.5712587e-05
     49600   0.00056619537  7.5712587e-05
     49700   0.00056619537  7.5712587e-05
     49800   0.00056619537  7.5712587e-05
     49900   0.00056619537  7.5712587e-05
     50000   0.00056619537  7.5712587e-05
Loop time of 2.39057 on 1 procs for 50000 steps with 160 atoms

Performance: 180709681.178 tau/day, 20915.472 timesteps/s, 3.346 Matom-step/s
84.3% CPU use with 1 MPI tasks x no OpenMP threads

MPI task timing breakdown:
Section |  min time  |  avg time  |  max time  |%varavg| %total
---------------------------------------------------------------
Pair    | 0.45307    | 0.45307    | 0.45307    |   0.0 | 18.95
Neigh   | 0.39879    | 0.39879    | 0.39879    |   0.0 | 16.68
Comm    | 0.67363    | 0.67363    | 0.67363    |   0.0 | 28.18
Output  | 0.49966    | 0.49966    | 0.49966    |   0.0 | 20.90
Modify  | 0.32923    | 0.32923    | 0.32923    |   0.0 | 13.77
Other   |            | 0.03619    |            |       |  1.51

Nlocal:            160 ave         160 max         160 min
Histogram: 1 0 0 0 0 0 0 0 0 0
Nghost:            600 ave         600 max         600 min
Histogram: 1 0 0 0 0 0 0 0 0 0
Neighs:              0 ave           0 max           0 min
Histogram: 1 0 0 0 0 0 0 0 0 0

Total # of neighbors = 0
Ave neighs/atom = 0
Neighbor list builds = 2705
Dangerous builds = 0

Total wall time: 0:00:02
