# Generated using make_ls_cube.py

488 atoms
 1 atom types

-1.4433756729740645 1.4433756729740645 xlo xhi
-1.4433756729740645 1.4433756729740645 ylo yhi
-1.4433756729740645 1.4433756729740645 zlo zhi

Atoms

1 1 1 -1.4433756729740645 -1.4433756729740645 -1.4433756729740645
2 1 1 1.4433756729740645 -1.4433756729740645 -1.4433756729740645
3 1 1 1.4433756729740645 1.4433756729740645 -1.4433756729740645
4 1 1 -1.4433756729740645 1.4433756729740645 -1.4433756729740645
5 1 1 -1.4433756729740645 -1.4433756729740645 1.4433756729740645
6 1 1 1.4433756729740645 -1.4433756729740645 1.4433756729740645
7 1 1 1.4433756729740645 1.4433756729740645 1.4433756729740645
8 1 1 -1.4433756729740645 1.4433756729740645 1.4433756729740645
9 1 1 -1.1226255234242724 -1.4433756729740645 -1.4433756729740645
10 1 1 -0.8018753738744803 -1.4433756729740645 -1.4433756729740645
11 1 1 -0.4811252243246882 -1.4433756729740645 -1.4433756729740645
12 1 1 -0.160375074774896 -1.4433756729740645 -1.4433756729740645
13 1 1 0.1603750747748962 -1.4433756729740645 -1.4433756729740645
14 1 1 0.4811252243246882 -1.4433756729740645 -1.4433756729740645
15 1 1 0.8018753738744806 -1.4433756729740645 -1.4433756729740645
16 1 1 1.1226255234242726 -1.4433756729740645 -1.4433756729740645
17 1 1 -1.1226255234242724 -1.4433756729740645 1.4433756729740645
18 1 1 -0.8018753738744803 -1.4433756729740645 1.4433756729740645
19 1 1 -0.4811252243246882 -1.4433756729740645 1.4433756729740645
20 1 1 -0.160375074774896 -1.4433756729740645 1.4433756729740645
21 1 1 0.1603750747748962 -1.4433756729740645 1.4433756729740645
22 1 1 0.4811252243246882 -1.4433756729740645 1.4433756729740645
23 1 1 0.8018753738744806 -1.4433756729740645 1.4433756729740645
24 1 1 1.1226255234242726 -1.4433756729740645 1.4433756729740645
25 1 1 -1.1226255234242724 1.4433756729740645 1.4433756729740645
26 1 1 -0.8018753738744803 1.4433756729740645 1.4433756729740645
27 1 1 -0.4811252243246882 1.4433756729740645 1.4433756729740645
28 1 1 -0.160375074774896 1.4433756729740645 1.4433756729740645
29 1 1 0.1603750747748962 1.4433756729740645 1.4433756729740645
30 1 1 0.4811252243246882 1.4433756729740645 1.4433756729740645
31 1 1 0.8018753738744806 1.4433756729740645 1.4433756729740645
32 1 1 1.1226255234242726 1.4433756729740645 1.4433756729740645
33 1 1 -1.1226255234242724 1.4433756729740645 -1.4433756729740645
34 1 1 -0.8018753738744803 1.4433756729740645 -1.4433756729740645
35 1 1 -0.4811252243246882 1.4433756729740645 -1.4433756729740645
36 1 1 -0.160375074774896 1.4433756729740645 -1.4433756729740645
37 1 1 0.1603750747748962 1.4433756729740645 -1.4433756729740645
38 1 1 0.4811252243246882 1.4433756729740645 -1.4433756729740645
39 1 1 0.8018753738744806 1.4433756729740645 -1.4433756729740645
40 1 1 1.1226255234242726 1.4433756729740645 -1.4433756729740645
41 1 1 -1.4433756729740645 -1.1226255234242724 -1.4433756729740645
42 1 1 -1.4433756729740645 -0.8018753738744803 -1.4433756729740645
43 1 1 -1.4433756729740645 -0.4811252243246882 -1.4433756729740645
44 1 1 -1.4433756729740645 -0.160375074774896 -1.4433756729740645
45 1 1 -1.4433756729740645 0.1603750747748962 -1.4433756729740645
46 1 1 -1.4433756729740645 0.4811252243246882 -1.4433756729740645
47 1 1 -1.4433756729740645 0.8018753738744806 -1.4433756729740645
48 1 1 -1.4433756729740645 1.1226255234242726 -1.4433756729740645
49 1 1 1.4433756729740645 -1.1226255234242724 -1.4433756729740645
50 1 1 1.4433756729740645 -0.8018753738744803 -1.4433756729740645
51 1 1 1.4433756729740645 -0.4811252243246882 -1.4433756729740645
52 1 1 1.4433756729740645 -0.160375074774896 -1.4433756729740645
53 1 1 1.4433756729740645 0.1603750747748962 -1.4433756729740645
54 1 1 1.4433756729740645 0.4811252243246882 -1.4433756729740645
55 1 1 1.4433756729740645 0.8018753738744806 -1.4433756729740645
56 1 1 1.4433756729740645 1.1226255234242726 -1.4433756729740645
57 1 1 1.4433756729740645 -1.1226255234242724 1.4433756729740645
58 1 1 1.4433756729740645 -0.8018753738744803 1.4433756729740645
59 1 1 1.4433756729740645 -0.4811252243246882 1.4433756729740645
60 1 1 1.4433756729740645 -0.160375074774896 1.4433756729740645
61 1 1 1.4433756729740645 0.1603750747748962 1.4433756729740645
62 1 1 1.4433756729740645 0.4811252243246882 1.4433756729740645
63 1 1 1.4433756729740645 0.8018753738744806 1.4433756729740645
64 1 1 1.4433756729740645 1.1226255234242726 1.4433756729740645
65 1 1 -1.4433756729740645 -1.1226255234242724 1.4433756729740645
66 1 1 -1.4433756729740645 -0.8018753738744803 1.4433756729740645
67 1 1 -1.4433756729740645 -0.4811252243246882 1.4433756729740645
68 1 1 -1.4433756729740645 -0.160375074774896 1.4433756729740645
69 1 1 -1.4433756729740645 0.1603750747748962 1.4433756729740645
70 1 1 -1.4433756729740645 0.4811252243246882 1.4433756729740645
71 1 1 -1.4433756729740645 0.8018753738744806 1.4433756729740645
72 1 1 -1.4433756729740645 1.1226255234242726 1.4433756729740645
73 1 1 -1.4433756729740645 -1.4433756729740645 -1.1226255234242724
74 1 1 -1.4433756729740645 -1.4433756729740645 -0.8018753738744803
75 1 1 -1.4433756729740645 -1.4433756729740645 -0.4811252243246882
76 1 1 -1.4433756729740645 -1.4433756729740645 -0.160375074774896
77 1 1 -1.4433756729740645 -1.4433756729740645 0.1603750747748962
78 1 1 -1.4433756729740645 -1.4433756729740645 0.4811252243246882
79 1 1 -1.4433756729740645 -1.4433756729740645 0.8018753738744806
80 1 1 -1.4433756729740645 -1.4433756729740645 1.1226255234242726
81 1 1 -1.4433756729740645 1.4433756729740645 -1.1226255234242724
82 1 1 -1.4433756729740645 1.4433756729740645 -0.8018753738744803
83 1 1 -1.4433756729740645 1.4433756729740645 -0.4811252243246882
84 1 1 -1.4433756729740645 1.4433756729740645 -0.160375074774896
85 1 1 -1.4433756729740645 1.4433756729740645 0.1603750747748962
86 1 1 -1.4433756729740645 1.4433756729740645 0.4811252243246882
87 1 1 -1.4433756729740645 1.4433756729740645 0.8018753738744806
88 1 1 -1.4433756729740645 1.4433756729740645 1.1226255234242726
89 1 1 1.4433756729740645 1.4433756729740645 -1.1226255234242724
90 1 1 1.4433756729740645 1.4433756729740645 -0.8018753738744803
91 1 1 1.4433756729740645 1.4433756729740645 -0.4811252243246882
92 1 1 1.4433756729740645 1.4433756729740645 -0.160375074774896
93 1 1 1.4433756729740645 1.4433756729740645 0.1603750747748962
94 1 1 1.4433756729740645 1.4433756729740645 0.4811252243246882
95 1 1 1.4433756729740645 1.4433756729740645 0.8018753738744806
96 1 1 1.4433756729740645 1.4433756729740645 1.1226255234242726
97 1 1 1.4433756729740645 -1.4433756729740645 -1.1226255234242724
98 1 1 1.4433756729740645 -1.4433756729740645 -0.8018753738744803
99 1 1 1.4433756729740645 -1.4433756729740645 -0.4811252243246882
100 1 1 1.4433756729740645 -1.4433756729740645 -0.160375074774896
101 1 1 1.4433756729740645 -1.4433756729740645 0.1603750747748962
102 1 1 1.4433756729740645 -1.4433756729740645 0.4811252243246882
103 1 1 1.4433756729740645 -1.4433756729740645 0.8018753738744806
104 1 1 1.4433756729740645 -1.4433756729740645 1.1226255234242726
105 1 1 -1.1226255234242724 -1.1226255234242724 -1.4433756729740645
106 1 1 -0.8018753738744803 -1.1226255234242724 -1.4433756729740645
107 1 1 -0.4811252243246882 -1.1226255234242724 -1.4433756729740645
108 1 1 -0.160375074774896 -1.1226255234242724 -1.4433756729740645
109 1 1 0.1603750747748962 -1.1226255234242724 -1.4433756729740645
110 1 1 0.4811252243246882 -1.1226255234242724 -1.4433756729740645
111 1 1 0.8018753738744806 -1.1226255234242724 -1.4433756729740645
112 1 1 1.1226255234242726 -1.1226255234242724 -1.4433756729740645
113 1 1 -1.1226255234242724 -0.8018753738744803 -1.4433756729740645
114 1 1 -0.8018753738744803 -0.8018753738744803 -1.4433756729740645
115 1 1 -0.4811252243246882 -0.8018753738744803 -1.4433756729740645
116 1 1 -0.160375074774896 -0.8018753738744803 -1.4433756729740645
117 1 1 0.1603750747748962 -0.8018753738744803 -1.4433756729740645
118 1 1 0.4811252243246882 -0.8018753738744803 -1.4433756729740645
119 1 1 0.8018753738744806 -0.8018753738744803 -1.4433756729740645
120 1 1 1.1226255234242726 -0.8018753738744803 -1.4433756729740645
121 1 1 -1.1226255234242724 -0.4811252243246882 -1.4433756729740645
122 1 1 -0.8018753738744803 -0.4811252243246882 -1.4433756729740645
123 1 1 -0.4811252243246882 -0.4811252243246882 -1.4433756729740645
124 1 1 -0.160375074774896 -0.4811252243246882 -1.4433756729740645
125 1 1 0.1603750747748962 -0.4811252243246882 -1.4433756729740645
126 1 1 0.4811252243246882 -0.4811252243246882 -1.4433756729740645
127 1 1 0.8018753738744806 -0.4811252243246882 -1.4433756729740645
128 1 1 1.1226255234242726 -0.4811252243246882 -1.4433756729740645
129 1 1 -1.1226255234242724 -0.160375074774896 -1.4433756729740645
130 1 1 -0.8018753738744803 -0.160375074774896 -1.4433756729740645
131 1 1 -0.4811252243246882 -0.160375074774896 -1.4433756729740645
132 1 1 -0.160375074774896 -0.160375074774896 -1.4433756729740645
133 1 1 0.1603750747748962 -0.160375074774896 -1.4433756729740645
134 1 1 0.4811252243246882 -0.160375074774896 -1.4433756729740645
135 1 1 0.8018753738744806 -0.160375074774896 -1.4433756729740645
136 1 1 1.1226255234242726 -0.160375074774896 -1.4433756729740645
137 1 1 -1.1226255234242724 0.1603750747748962 -1.4433756729740645
138 1 1 -0.8018753738744803 0.1603750747748962 -1.4433756729740645
139 1 1 -0.4811252243246882 0.1603750747748962 -1.4433756729740645
140 1 1 -0.160375074774896 0.1603750747748962 -1.4433756729740645
141 1 1 0.1603750747748962 0.1603750747748962 -1.4433756729740645
142 1 1 0.4811252243246882 0.1603750747748962 -1.4433756729740645
143 1 1 0.8018753738744806 0.1603750747748962 -1.4433756729740645
144 1 1 1.1226255234242726 0.1603750747748962 -1.4433756729740645
145 1 1 -1.1226255234242724 0.4811252243246882 -1.4433756729740645
146 1 1 -0.8018753738744803 0.4811252243246882 -1.4433756729740645
147 1 1 -0.4811252243246882 0.4811252243246882 -1.4433756729740645
148 1 1 -0.160375074774896 0.4811252243246882 -1.4433756729740645
149 1 1 0.1603750747748962 0.4811252243246882 -1.4433756729740645
150 1 1 0.4811252243246882 0.4811252243246882 -1.4433756729740645
151 1 1 0.8018753738744806 0.4811252243246882 -1.4433756729740645
152 1 1 1.1226255234242726 0.4811252243246882 -1.4433756729740645
153 1 1 -1.1226255234242724 0.8018753738744806 -1.4433756729740645
154 1 1 -0.8018753738744803 0.8018753738744806 -1.4433756729740645
155 1 1 -0.4811252243246882 0.8018753738744806 -1.4433756729740645
156 1 1 -0.160375074774896 0.8018753738744806 -1.4433756729740645
157 1 1 0.1603750747748962 0.8018753738744806 -1.4433756729740645
158 1 1 0.4811252243246882 0.8018753738744806 -1.4433756729740645
159 1 1 0.8018753738744806 0.8018753738744806 -1.4433756729740645
160 1 1 1.1226255234242726 0.8018753738744806 -1.4433756729740645
161 1 1 -1.1226255234242724 1.1226255234242726 -1.4433756729740645
162 1 1 -0.8018753738744803 1.1226255234242726 -1.4433756729740645
163 1 1 -0.4811252243246882 1.1226255234242726 -1.4433756729740645
164 1 1 -0.160375074774896 1.1226255234242726 -1.4433756729740645
165 1 1 0.1603750747748962 1.1226255234242726 -1.4433756729740645
166 1 1 0.4811252243246882 1.1226255234242726 -1.4433756729740645
167 1 1 0.8018753738744806 1.1226255234242726 -1.4433756729740645
168 1 1 1.1226255234242726 1.1226255234242726 -1.4433756729740645
169 1 1 -1.1226255234242724 -1.1226255234242724 1.4433756729740645
170 1 1 -0.8018753738744803 -1.1226255234242724 1.4433756729740645
171 1 1 -0.4811252243246882 -1.1226255234242724 1.4433756729740645
172 1 1 -0.160375074774896 -1.1226255234242724 1.4433756729740645
173 1 1 0.1603750747748962 -1.1226255234242724 1.4433756729740645
174 1 1 0.4811252243246882 -1.1226255234242724 1.4433756729740645
175 1 1 0.8018753738744806 -1.1226255234242724 1.4433756729740645
176 1 1 1.1226255234242726 -1.1226255234242724 1.4433756729740645
177 1 1 -1.1226255234242724 -0.8018753738744803 1.4433756729740645
178 1 1 -0.8018753738744803 -0.8018753738744803 1.4433756729740645
179 1 1 -0.4811252243246882 -0.8018753738744803 1.4433756729740645
180 1 1 -0.160375074774896 -0.8018753738744803 1.4433756729740645
181 1 1 0.1603750747748962 -0.8018753738744803 1.4433756729740645
182 1 1 0.4811252243246882 -0.8018753738744803 1.4433756729740645
183 1 1 0.8018753738744806 -0.8018753738744803 1.4433756729740645
184 1 1 1.1226255234242726 -0.8018753738744803 1.4433756729740645
185 1 1 -1.1226255234242724 -0.4811252243246882 1.4433756729740645
186 1 1 -0.8018753738744803 -0.4811252243246882 1.4433756729740645
187 1 1 -0.4811252243246882 -0.4811252243246882 1.4433756729740645
188 1 1 -0.160375074774896 -0.4811252243246882 1.4433756729740645
189 1 1 0.1603750747748962 -0.4811252243246882 1.4433756729740645
190 1 1 0.4811252243246882 -0.4811252243246882 1.4433756729740645
191 1 1 0.8018753738744806 -0.4811252243246882 1.4433756729740645
192 1 1 1.1226255234242726 -0.4811252243246882 1.4433756729740645
193 1 1 -1.1226255234242724 -0.160375074774896 1.4433756729740645
194 1 1 -0.8018753738744803 -0.160375074774896 1.4433756729740645
195 1 1 -0.4811252243246882 -0.160375074774896 1.4433756729740645
196 1 1 -0.160375074774896 -0.160375074774896 1.4433756729740645
197 1 1 0.1603750747748962 -0.160375074774896 1.4433756729740645
198 1 1 0.4811252243246882 -0.160375074774896 1.4433756729740645
199 1 1 0.8018753738744806 -0.160375074774896 1.4433756729740645
200 1 1 1.1226255234242726 -0.160375074774896 1.4433756729740645
201 1 1 -1.1226255234242724 0.1603750747748962 1.4433756729740645
202 1 1 -0.8018753738744803 0.1603750747748962 1.4433756729740645
203 1 1 -0.4811252243246882 0.1603750747748962 1.4433756729740645
204 1 1 -0.160375074774896 0.1603750747748962 1.4433756729740645
205 1 1 0.1603750747748962 0.1603750747748962 1.4433756729740645
206 1 1 0.4811252243246882 0.1603750747748962 1.4433756729740645
207 1 1 0.8018753738744806 0.1603750747748962 1.4433756729740645
208 1 1 1.1226255234242726 0.1603750747748962 1.4433756729740645
209 1 1 -1.1226255234242724 0.4811252243246882 1.4433756729740645
210 1 1 -0.8018753738744803 0.4811252243246882 1.4433756729740645
211 1 1 -0.4811252243246882 0.4811252243246882 1.4433756729740645
212 1 1 -0.160375074774896 0.4811252243246882 1.4433756729740645
213 1 1 0.1603750747748962 0.4811252243246882 1.4433756729740645
214 1 1 0.4811252243246882 0.4811252243246882 1.4433756729740645
215 1 1 0.8018753738744806 0.4811252243246882 1.4433756729740645
216 1 1 1.1226255234242726 0.4811252243246882 1.4433756729740645
217 1 1 -1.1226255234242724 0.8018753738744806 1.4433756729740645
218 1 1 -0.8018753738744803 0.8018753738744806 1.4433756729740645
219 1 1 -0.4811252243246882 0.8018753738744806 1.4433756729740645
220 1 1 -0.160375074774896 0.8018753738744806 1.4433756729740645
221 1 1 0.1603750747748962 0.8018753738744806 1.4433756729740645
222 1 1 0.4811252243246882 0.8018753738744806 1.4433756729740645
223 1 1 0.8018753738744806 0.8018753738744806 1.4433756729740645
224 1 1 1.1226255234242726 0.8018753738744806 1.4433756729740645
225 1 1 -1.1226255234242724 1.1226255234242726 1.4433756729740645
226 1 1 -0.8018753738744803 1.1226255234242726 1.4433756729740645
227 1 1 -0.4811252243246882 1.1226255234242726 1.4433756729740645
228 1 1 -0.160375074774896 1.1226255234242726 1.4433756729740645
229 1 1 0.1603750747748962 1.1226255234242726 1.4433756729740645
230 1 1 0.4811252243246882 1.1226255234242726 1.4433756729740645
231 1 1 0.8018753738744806 1.1226255234242726 1.4433756729740645
232 1 1 1.1226255234242726 1.1226255234242726 1.4433756729740645
233 1 1 -1.1226255234242724 -1.4433756729740645 -1.1226255234242724
234 1 1 -1.1226255234242724 -1.4433756729740645 -0.8018753738744803
235 1 1 -1.1226255234242724 -1.4433756729740645 -0.4811252243246882
236 1 1 -1.1226255234242724 -1.4433756729740645 -0.160375074774896
237 1 1 -1.1226255234242724 -1.4433756729740645 0.1603750747748962
238 1 1 -1.1226255234242724 -1.4433756729740645 0.4811252243246882
239 1 1 -1.1226255234242724 -1.4433756729740645 0.8018753738744806
240 1 1 -1.1226255234242724 -1.4433756729740645 1.1226255234242726
241 1 1 -0.8018753738744803 -1.4433756729740645 -1.1226255234242724
242 1 1 -0.8018753738744803 -1.4433756729740645 -0.8018753738744803
243 1 1 -0.8018753738744803 -1.4433756729740645 -0.4811252243246882
244 1 1 -0.8018753738744803 -1.4433756729740645 -0.160375074774896
245 1 1 -0.8018753738744803 -1.4433756729740645 0.1603750747748962
246 1 1 -0.8018753738744803 -1.4433756729740645 0.4811252243246882
247 1 1 -0.8018753738744803 -1.4433756729740645 0.8018753738744806
248 1 1 -0.8018753738744803 -1.4433756729740645 1.1226255234242726
249 1 1 -0.4811252243246882 -1.4433756729740645 -1.1226255234242724
250 1 1 -0.4811252243246882 -1.4433756729740645 -0.8018753738744803
251 1 1 -0.4811252243246882 -1.4433756729740645 -0.4811252243246882
252 1 1 -0.4811252243246882 -1.4433756729740645 -0.160375074774896
253 1 1 -0.4811252243246882 -1.4433756729740645 0.1603750747748962
254 1 1 -0.4811252243246882 -1.4433756729740645 0.4811252243246882
255 1 1 -0.4811252243246882 -1.4433756729740645 0.8018753738744806
256 1 1 -0.4811252243246882 -1.4433756729740645 1.1226255234242726
257 1 1 -0.160375074774896 -1.4433756729740645 -1.1226255234242724
258 1 1 -0.160375074774896 -1.4433756729740645 -0.8018753738744803
259 1 1 -0.160375074774896 -1.4433756729740645 -0.4811252243246882
260 1 1 -0.160375074774896 -1.4433756729740645 -0.160375074774896
261 1 1 -0.160375074774896 -1.4433756729740645 0.1603750747748962
262 1 1 -0.160375074774896 -1.4433756729740645 0.4811252243246882
263 1 1 -0.160375074774896 -1.4433756729740645 0.8018753738744806
264 1 1 -0.160375074774896 -1.4433756729740645 1.1226255234242726
265 1 1 0.1603750747748962 -1.4433756729740645 -1.1226255234242724
266 1 1 0.1603750747748962 -1.4433756729740645 -0.8018753738744803
267 1 1 0.1603750747748962 -1.4433756729740645 -0.4811252243246882
268 1 1 0.1603750747748962 -1.4433756729740645 -0.160375074774896
269 1 1 0.1603750747748962 -1.4433756729740645 0.1603750747748962
270 1 1 0.1603750747748962 -1.4433756729740645 0.4811252243246882
271 1 1 0.1603750747748962 -1.4433756729740645 0.8018753738744806
272 1 1 0.1603750747748962 -1.4433756729740645 1.1226255234242726
273 1 1 0.4811252243246882 -1.4433756729740645 -1.1226255234242724
274 1 1 0.4811252243246882 -1.4433756729740645 -0.8018753738744803
275 1 1 0.4811252243246882 -1.4433756729740645 -0.4811252243246882
276 1 1 0.4811252243246882 -1.4433756729740645 -0.160375074774896
277 1 1 0.4811252243246882 -1.4433756729740645 0.1603750747748962
278 1 1 0.4811252243246882 -1.4433756729740645 0.4811252243246882
279 1 1 0.4811252243246882 -1.4433756729740645 0.8018753738744806
280 1 1 0.4811252243246882 -1.4433756729740645 1.1226255234242726
281 1 1 0.8018753738744806 -1.4433756729740645 -1.1226255234242724
282 1 1 0.8018753738744806 -1.4433756729740645 -0.8018753738744803
283 1 1 0.8018753738744806 -1.4433756729740645 -0.4811252243246882
284 1 1 0.8018753738744806 -1.4433756729740645 -0.160375074774896
285 1 1 0.8018753738744806 -1.4433756729740645 0.1603750747748962
286 1 1 0.8018753738744806 -1.4433756729740645 0.4811252243246882
287 1 1 0.8018753738744806 -1.4433756729740645 0.8018753738744806
288 1 1 0.8018753738744806 -1.4433756729740645 1.1226255234242726
289 1 1 1.1226255234242726 -1.4433756729740645 -1.1226255234242724
290 1 1 1.1226255234242726 -1.4433756729740645 -0.8018753738744803
291 1 1 1.1226255234242726 -1.4433756729740645 -0.4811252243246882
292 1 1 1.1226255234242726 -1.4433756729740645 -0.160375074774896
293 1 1 1.1226255234242726 -1.4433756729740645 0.1603750747748962
294 1 1 1.1226255234242726 -1.4433756729740645 0.4811252243246882
295 1 1 1.1226255234242726 -1.4433756729740645 0.8018753738744806
296 1 1 1.1226255234242726 -1.4433756729740645 1.1226255234242726
297 1 1 -1.1226255234242724 1.4433756729740645 -1.1226255234242724
298 1 1 -1.1226255234242724 1.4433756729740645 -0.8018753738744803
299 1 1 -1.1226255234242724 1.4433756729740645 -0.4811252243246882
300 1 1 -1.1226255234242724 1.4433756729740645 -0.160375074774896
301 1 1 -1.1226255234242724 1.4433756729740645 0.1603750747748962
302 1 1 -1.1226255234242724 1.4433756729740645 0.4811252243246882
303 1 1 -1.1226255234242724 1.4433756729740645 0.8018753738744806
304 1 1 -1.1226255234242724 1.4433756729740645 1.1226255234242726
305 1 1 -0.8018753738744803 1.4433756729740645 -1.1226255234242724
306 1 1 -0.8018753738744803 1.4433756729740645 -0.8018753738744803
307 1 1 -0.8018753738744803 1.4433756729740645 -0.4811252243246882
308 1 1 -0.8018753738744803 1.4433756729740645 -0.160375074774896
309 1 1 -0.8018753738744803 1.4433756729740645 0.1603750747748962
310 1 1 -0.8018753738744803 1.4433756729740645 0.4811252243246882
311 1 1 -0.8018753738744803 1.4433756729740645 0.8018753738744806
312 1 1 -0.8018753738744803 1.4433756729740645 1.1226255234242726
313 1 1 -0.4811252243246882 1.4433756729740645 -1.1226255234242724
314 1 1 -0.4811252243246882 1.4433756729740645 -0.8018753738744803
315 1 1 -0.4811252243246882 1.4433756729740645 -0.4811252243246882
316 1 1 -0.4811252243246882 1.4433756729740645 -0.160375074774896
317 1 1 -0.4811252243246882 1.4433756729740645 0.1603750747748962
318 1 1 -0.4811252243246882 1.4433756729740645 0.4811252243246882
319 1 1 -0.4811252243246882 1.4433756729740645 0.8018753738744806
320 1 1 -0.4811252243246882 1.4433756729740645 1.1226255234242726
321 1 1 -0.160375074774896 1.4433756729740645 -1.1226255234242724
322 1 1 -0.160375074774896 1.4433756729740645 -0.8018753738744803
323 1 1 -0.160375074774896 1.4433756729740645 -0.4811252243246882
324 1 1 -0.160375074774896 1.4433756729740645 -0.160375074774896
325 1 1 -0.160375074774896 1.4433756729740645 0.1603750747748962
326 1 1 -0.160375074774896 1.4433756729740645 0.4811252243246882
327 1 1 -0.160375074774896 1.4433756729740645 0.8018753738744806
328 1 1 -0.160375074774896 1.4433756729740645 1.1226255234242726
329 1 1 0.1603750747748962 1.4433756729740645 -1.1226255234242724
330 1 1 0.1603750747748962 1.4433756729740645 -0.8018753738744803
331 1 1 0.1603750747748962 1.4433756729740645 -0.4811252243246882
332 1 1 0.1603750747748962 1.4433756729740645 -0.160375074774896
333 1 1 0.1603750747748962 1.4433756729740645 0.1603750747748962
334 1 1 0.1603750747748962 1.4433756729740645 0.4811252243246882
335 1 1 0.1603750747748962 1.4433756729740645 0.8018753738744806
336 1 1 0.1603750747748962 1.4433756729740645 1.1226255234242726
337 1 1 0.4811252243246882 1.4433756729740645 -1.1226255234242724
338 1 1 0.4811252243246882 1.4433756729740645 -0.8018753738744803
339 1 1 0.4811252243246882 1.4433756729740645 -0.4811252243246882
340 1 1 0.4811252243246882 1.4433756729740645 -0.160375074774896
341 1 1 0.4811252243246882 1.4433756729740645 0.1603750747748962
342 1 1 0.4811252243246882 1.4433756729740645 0.4811252243246882
343 1 1 0.4811252243246882 1.4433756729740645 0.8018753738744806
344 1 1 0.4811252243246882 1.4433756729740645 1.1226255234242726
345 1 1 0.8018753738744806 1.4433756729740645 -1.1226255234242724
346 1 1 0.8018753738744806 1.4433756729740645 -0.8018753738744803
347 1 1 0.8018753738744806 1.4433756729740645 -0.4811252243246882
348 1 1 0.8018753738744806 1.4433756729740645 -0.160375074774896
349 1 1 0.8018753738744806 1.4433756729740645 0.1603750747748962
350 1 1 0.8018753738744806 1.4433756729740645 0.4811252243246882
351 1 1 0.8018753738744806 1.4433756729740645 0.8018753738744806
352 1 1 0.8018753738744806 1.4433756729740645 1.1226255234242726
353 1 1 1.1226255234242726 1.4433756729740645 -1.1226255234242724
354 1 1 1.1226255234242726 1.4433756729740645 -0.8018753738744803
355 1 1 1.1226255234242726 1.4433756729740645 -0.4811252243246882
356 1 1 1.1226255234242726 1.4433756729740645 -0.160375074774896
357 1 1 1.1226255234242726 1.4433756729740645 0.1603750747748962
358 1 1 1.1226255234242726 1.4433756729740645 0.4811252243246882
359 1 1 1.1226255234242726 1.4433756729740645 0.8018753738744806
360 1 1 1.1226255234242726 1.4433756729740645 1.1226255234242726
361 1 1 -1.4433756729740645 -1.1226255234242724 -1.1226255234242724
362 1 1 -1.4433756729740645 -0.8018753738744803 -1.1226255234242724
363 1 1 -1.4433756729740645 -0.4811252243246882 -1.1226255234242724
364 1 1 -1.4433756729740645 -0.160375074774896 -1.1226255234242724
365 1 1 -1.4433756729740645 0.1603750747748962 -1.1226255234242724
366 1 1 -1.4433756729740645 0.4811252243246882 -1.1226255234242724
367 1 1 -1.4433756729740645 0.8018753738744806 -1.1226255234242724
368 1 1 -1.4433756729740645 1.1226255234242726 -1.1226255234242724
369 1 1 -1.4433756729740645 -1.1226255234242724 -0.8018753738744803
370 1 1 -1.4433756729740645 -0.8018753738744803 -0.8018753738744803
371 1 1 -1.4433756729740645 -0.4811252243246882 -0.8018753738744803
372 1 1 -1.4433756729740645 -0.160375074774896 -0.8018753738744803
373 1 1 -1.4433756729740645 0.1603750747748962 -0.8018753738744803
374 1 1 -1.4433756729740645 0.4811252243246882 -0.8018753738744803
375 1 1 -1.4433756729740645 0.8018753738744806 -0.8018753738744803
376 1 1 -1.4433756729740645 1.1226255234242726 -0.8018753738744803
377 1 1 -1.4433756729740645 -1.1226255234242724 -0.4811252243246882
378 1 1 -1.4433756729740645 -0.8018753738744803 -0.4811252243246882
379 1 1 -1.4433756729740645 -0.4811252243246882 -0.4811252243246882
380 1 1 -1.4433756729740645 -0.160375074774896 -0.4811252243246882
381 1 1 -1.4433756729740645 0.1603750747748962 -0.4811252243246882
382 1 1 -1.4433756729740645 0.4811252243246882 -0.4811252243246882
383 1 1 -1.4433756729740645 0.8018753738744806 -0.4811252243246882
384 1 1 -1.4433756729740645 1.1226255234242726 -0.4811252243246882
385 1 1 -1.4433756729740645 -1.1226255234242724 -0.160375074774896
386 1 1 -1.4433756729740645 -0.8018753738744803 -0.160375074774896
387 1 1 -1.4433756729740645 -0.4811252243246882 -0.160375074774896
388 1 1 -1.4433756729740645 -0.160375074774896 -0.160375074774896
389 1 1 -1.4433756729740645 0.1603750747748962 -0.160375074774896
390 1 1 -1.4433756729740645 0.4811252243246882 -0.160375074774896
391 1 1 -1.4433756729740645 0.8018753738744806 -0.160375074774896
392 1 1 -1.4433756729740645 1.1226255234242726 -0.160375074774896
393 1 1 -1.4433756729740645 -1.1226255234242724 0.1603750747748962
394 1 1 -1.4433756729740645 -0.8018753738744803 0.1603750747748962
395 1 1 -1.4433756729740645 -0.4811252243246882 0.1603750747748962
396 1 1 -1.4433756729740645 -0.160375074774896 0.1603750747748962
397 1 1 -1.4433756729740645 0.1603750747748962 0.1603750747748962
398 1 1 -1.4433756729740645 0.4811252243246882 0.1603750747748962
399 1 1 -1.4433756729740645 0.8018753738744806 0.1603750747748962
400 1 1 -1.4433756729740645 1.1226255234242726 0.1603750747748962
401 1 1 -1.4433756729740645 -1.1226255234242724 0.4811252243246882
402 1 1 -1.4433756729740645 -0.8018753738744803 0.4811252243246882
403 1 1 -1.4433756729740645 -0.4811252243246882 0.4811252243246882
404 1 1 -1.4433756729740645 -0.160375074774896 0.4811252243246882
405 1 1 -1.4433756729740645 0.1603750747748962 0.4811252243246882
406 1 1 -1.4433756729740645 0.4811252243246882 0.4811252243246882
407 1 1 -1.4433756729740645 0.8018753738744806 0.4811252243246882
408 1 1 -1.4433756729740645 1.1226255234242726 0.4811252243246882
409 1 1 -1.4433756729740645 -1.1226255234242724 0.8018753738744806
410 1 1 -1.4433756729740645 -0.8018753738744803 0.8018753738744806
411 1 1 -1.4433756729740645 -0.4811252243246882 0.8018753738744806
412 1 1 -1.4433756729740645 -0.160375074774896 0.8018753738744806
413 1 1 -1.4433756729740645 0.1603750747748962 0.8018753738744806
414 1 1 -1.4433756729740645 0.4811252243246882 0.8018753738744806
415 1 1 -1.4433756729740645 0.8018753738744806 0.8018753738744806
416 1 1 -1.4433756729740645 1.1226255234242726 0.8018753738744806
417 1 1 -1.4433756729740645 -1.1226255234242724 1.1226255234242726
418 1 1 -1.4433756729740645 -0.8018753738744803 1.1226255234242726
419 1 1 -1.4433756729740645 -0.4811252243246882 1.1226255234242726
420 1 1 -1.4433756729740645 -0.160375074774896 1.1226255234242726
421 1 1 -1.4433756729740645 0.1603750747748962 1.1226255234242726
422 1 1 -1.4433756729740645 0.4811252243246882 1.1226255234242726
423 1 1 -1.4433756729740645 0.8018753738744806 1.1226255234242726
424 1 1 -1.4433756729740645 1.1226255234242726 1.1226255234242726
425 1 1 1.4433756729740645 -1.1226255234242724 -1.1226255234242724
426 1 1 1.4433756729740645 -0.8018753738744803 -1.1226255234242724
427 1 1 1.4433756729740645 -0.4811252243246882 -1.1226255234242724
428 1 1 1.4433756729740645 -0.160375074774896 -1.1226255234242724
429 1 1 1.4433756729740645 0.1603750747748962 -1.1226255234242724
430 1 1 1.4433756729740645 0.4811252243246882 -1.1226255234242724
431 1 1 1.4433756729740645 0.8018753738744806 -1.1226255234242724
432 1 1 1.4433756729740645 1.1226255234242726 -1.1226255234242724
433 1 1 1.4433756729740645 -1.1226255234242724 -0.8018753738744803
434 1 1 1.4433756729740645 -0.8018753738744803 -0.8018753738744803
435 1 1 1.4433756729740645 -0.4811252243246882 -0.8018753738744803
436 1 1 1.4433756729740645 -0.160375074774896 -0.8018753738744803
437 1 1 1.4433756729740645 0.1603750747748962 -0.8018753738744803
438 1 1 1.4433756729740645 0.4811252243246882 -0.8018753738744803
439 1 1 1.4433756729740645 0.8018753738744806 -0.8018753738744803
440 1 1 1.4433756729740645 1.1226255234242726 -0.8018753738744803
441 1 1 1.4433756729740645 -1.1226255234242724 -0.4811252243246882
442 1 1 1.4433756729740645 -0.8018753738744803 -0.4811252243246882
443 1 1 1.4433756729740645 -0.4811252243246882 -0.4811252243246882