# Generated using make_nodes_sphere.py (uniform sphere sampling)

100 atoms
 1 atom types

-1.0 1.0 xlo xhi
-1.0 1.0 ylo yhi
-1.0 1.0 zlo zhi

Atoms

1 1 1 1.0 0.0 0.0 1.0
2 1 1 1.0 -0.14746625201921926 0.13509116662166226 0.9797979797979798
3 1 1 1.0 0.02459998867216223 -0.28030418278084795 0.9595959595959596
4 1 1 1.0 0.20859696704755032 0.2720778049905923 0.9393939393939394
5 1 1 1.0 -0.38778989211836534 -0.06859457167373212 0.9191919191919192
6 1 1 1.0 0.3695389676362656 -0.23507044244748046 0.898989898989899
7 1 1 1.0 -0.12388644490434447 0.46085139998101693 0.8787878787878788
8 1 1 1.0 -0.2362931120005442 -0.45496800838903206 0.8585858585858586
9 1 1 1.0 0.5120055392429735 0.18698360174436116 0.8383838383838383
10 1 1 1.0 -0.5314613277182721 0.21937951029352218 0.8181818181818181
11 1 1 1.0 0.2554452834241677 -0.5458717332784941 0.797979797979798
12 1 1 1.0 0.18811168893216454 0.599729706519654 0.7777777777777778
13 1 1 1.0 -0.5647642372728925 -0.32729241945252097 0.7575757575757576
14 1 1 1.0 0.6597298249772894 -0.1450397513336312 0.7373737373737373
15 1 1 1.0 -0.4008056847193861 0.5701048422751683 0.7171717171717171
16 1 1 1.0 -0.09215509016145575 -0.7111544704656666 0.696969696969697
17 1 1 1.0 0.5629320310676116 0.4744397117448909 0.6767676767676767
18 1 1 1.0 -0.7536247719876671 0.03116475036070761 0.6565656565656566
19 1 1 1.0 0.5467833660637458 -0.5441224796955639 0.6363636363636364
20 1 1 1.0 -0.036381294874350066 0.7867790440475463 0.6161616161616161
21 1 1 1.0 -0.5144986829326802 -0.6165413735056331 0.595959595959596
22 1 1 1.0 0.810318627523005 0.1090272252558633 0.5757575757575757
23 1 1 1.0 -0.6825268133340844 0.4748843793718403 0.5555555555555556
24 1 1 1.0 0.18538012732823733 -0.824033252105907 0.5353535353535354
25 1 1 1.0 0.42613329474451056 0.7436594190536997 0.5151515151515151
26 1 1 1.0 -0.8278154695967781 -0.26409571322818837 0.4949494949494949
27 1 1 1.0 0.7989669998181965 -0.36914301892681894 0.4747474747474747
28 1 1 1.0 -0.34387369489002784 0.8216686142933453 0.4545454545454546
29 1 1 1.0 -0.30485999243134887 -0.8475884414369445 0.43434343434343436
30 1 1 1.0 0.805710536469497 0.4234588770057667 0.41414141414141414
31 1 1 1.0 -0.8887773463851525 0.23427885618473887 0.3939393939393939
32 1 1 1.0 0.5016456981916779 -0.7801743195963802 0.3737373737373737
33 1 1 1.0 0.1584380564140349 0.9219057088880488 0.3535353535353535
34 1 1 1.0 -0.7454066778203466 -0.5772848287888075 0.33333333333333337
35 1 1 1.0 0.9464672217388467 -0.07841287464828883 0.31313131313131315
36 1 1 1.0 -0.6492909240678544 0.7018644636018099 0.29292929292929293
37 1 1 1.0 0.004693348436698646 -0.962079938046312 0.2727272727272727
38 1 1 1.0 0.6501095730811276 0.7166509190849695 0.2525252525252525
39 1 1 1.0 -0.9684880955101909 -0.08975925900946813 0.23232323232323238
40 1 1 1.0 0.7784324280224146 -0.5908024596862779 0.21212121212121215
41 1 1 1.0 -0.17565640922420142 0.965562970329509 0.19191919191919193
42 1 1 1.0 -0.524694425012087 -0.8337919244623869 0.1717171717171717
43 1 1 1.0 0.953302672153812 0.261260739732824 0.1515151515151515
44 1 1 1.0 -0.881982455759027 0.452618834426956 0.13131313131313127
45 1 1 1.0 0.3454643719150054 -0.9318308262367291 0.11111111111111116
46 1 1 1.0 0.3754813946348314 0.9223606992240967 0.09090909090909094
47 1 1 1.0 -0.9013941175375193 -0.4271874939892109 0.07070707070707072
48 1 1 1.0 0.9543932088315645 -0.29424962669419313 0.0505050505050505
49 1 1 1.0 -0.5053901519770723 0.8623586960418764 0.030303030303030276
50 1 1 1.0 -0.20994166796485794 -0.9776617337540999 0.010101010101010055
51 1 1 1.0 0.8152054643909257 0.5790837766870305 -0.010101010101010166
52 1 1 1.0 -0.9918675174806254 0.12361453847050048 -0.030303030303030276
53 1 1 1.0 0.647342294163027 -0.760524288935752 -0.05050505050505061
54 1 1 1.0 0.036352010274409166 0.9968345105889114 -0.07070707070707072
55 1 1 1.0 -0.699007194257504 -0.7093126810979307 -0.09090909090909083
56 1 1 1.0 0.9925114528466925 0.05074777784102474 -0.11111111111111116
57 1 1 1.0 -0.7642248396034597 0.6314406195976044 -0.13131313131313127
58 1 1 1.0 0.13658481401054057 -0.9789728021978172 -0.1515151515151516
59 1 1 1.0 0.5586968341301761 0.8114006781303389 -0.1717171717171717
60 1 1 1.0 -0.9564185101904323 -0.22006966428428593 -0.19191919191919182
61 1 1 1.0 0.8502622976531624 -0.481724627310866 -0.21212121212121215
62 1 1 1.0 -0.3001357245994345 0.925172666339672 -0.23232323232323226
63 1 1 1.0 -0.40153941165456736 -0.8803391947000664 -0.2525252525252526
64 1 1 1.0 0.8856810587479376 0.37575111029227326 -0.2727272727272727
65 1 1 1.0 -0.9012744054991931 0.31921289970178274 -0.29292929292929304
66 1 1 1.0 0.4459300097862065 -0.8385077263261997 -0.31313131313131315
67 1 1 1.0 0.2358625469016438 0.9128295283665834 -0.33333333333333326
68 1 1 1.0 -0.7843306110813986 -0.5097433141506739 -0.3535353535353536
69 1 1 1.0 0.9148885742302104 -0.15264099126677408 -0.3737373737373737
70 1 1 1.0 -0.5663283107791219 0.7239364601349549 -0.39393939393939403
71 1 1 1.0 -0.07072577480976396 -0.9074606073381413 -0.41414141414141414
72 1 1 1.0 0.6582151812328982 0.6148971915997776 -0.43434343434343425
73 1 1 1.0 -0.8906811486863095 -0.008690289230056054 -0.4545454545454546
74 1 1 1.0 0.6547440638983667 -0.5881539305409319 -0.4747474747474747
75 1 1 1.0 -0.0844076185990376 0.8648123214730924 -0.49494949494949503
76 1 1 1.0 -0.5148313213466434 -0.6852500470613391 -0.5151515151515151
77 1 1 1.0 0.8302417168632671 0.15522655624733092 -0.5353535353535352
78 1 1 1.0 -0.7058858583876281 0.4394123116387607 -0.5555555555555556
79 1 1 1.0 0.21995125879639574 -0.7874799411487513 -0.5757575757575757
80 1 1 1.0 0.36314460329981607 0.716210972464046 -0.595959595959596
81 1 1 1.0 -0.7371567541746309 -0.2773892257169118 -0.6161616161616161
82 1 1 1.0 0.7158678547352053 -0.2873578550707543 -0.6363636363636365
83 1 1 1.0 -0.32634390508965844 0.6800155838135921 -0.6565656565656566
84 1 1 1.0 -0.2134678587671022 -0.7045686516982358 -0.6767676767676767
85 1 1 1.0 0.6169059083366062 0.3655958721940876 -0.696969696969697
86 1 1 1.0 -0.682069456740248 0.1429894551043307 -0.7171717171717171
87 1 1 1.0 0.39386410565593444 -0.5487723004191606 -0.7373737373737375
88 1 1 1.0 0.07756532525223452 0.6481223587039965 -0.7575757575757576
89 1 1 1.0 -0.4766371704744871 -0.40973007714486476 -0.7777777777777777
90 1 1 1.0 0.602383828393648 -0.019025385828753183 -0.797979797979798
91 1 1 1.0 -0.4114857305574173 0.4015694285479446 -0.8181818181818181
92 1 1 1.0 0.030489215000371852 -0.5442269262958632 -0.8383838383838385
93 1 1 1.0 0.32461627083359845 0.3968054940981438 -0.8585858585858586
94 1 1 1.0 -0.47230744988700407 -0.06824614917147546 -0.8787878787878789
95 1 1 1.0 0.36193414905469656 -0.24661880151801846 -0.898989898989899
96 1 1 1.0 -0.09017831280031294 0.3833459111465329 -0.9191919191919191
97 1 1 1.0 -0.16754301826617046 -0.29911262704907204 -0.9393939393939394
98 1 1 1.0 0.2672230541103598 0.0881330453294412 -0.9595959595959596
99 1 1 1.0 -0.18235869564294302 0.08210496274404974 -0.9797979797979799
100 1 1 1.0 4.8378785223302456e-17 -1.1250373756874102e-16 -1.0
