# Generated from create_spheres.py

40 atoms
1 atom types

-5 5 xlo xhi
-5 5 ylo yhi
-0.5 0.5 zlo zhi

Atoms

1  1 1 1.0  2.500000e+00  0.000000e+00 0
2  1 1 1.0  2.469221e+00  3.910862e-01 0
3  1 1 1.0  2.377641e+00  7.725425e-01 0
4  1 1 1.0  2.227516e+00  1.134976e+00 0
5  1 1 1.0  2.022542e+00  1.469463e+00 0
6  1 1 1.0  1.767767e+00  1.767767e+00 0
7  1 1 1.0  1.469463e+00  2.022542e+00 0
8  1 1 1.0  1.134976e+00  2.227516e+00 0
9  1 1 1.0  7.725425e-01  2.377641e+00 0
10 1 1 1.0  3.910862e-01  2.469221e+00 0
11 1 1 1.0  1.530758e-16  2.500000e+00 0
12 1 1 1.0 -3.910862e-01  2.469221e+00 0
13 1 1 1.0 -7.725425e-01  2.377641e+00 0
14 1 1 1.0 -1.134976e+00  2.227516e+00 0
15 1 1 1.0 -1.469463e+00  2.022542e+00 0
16 1 1 1.0 -1.767767e+00  1.767767e+00 0
17 1 1 1.0 -2.022542e+00  1.469463e+00 0
18 1 1 1.0 -2.227516e+00  1.134976e+00 0
19 1 1 1.0 -2.377641e+00  7.725425e-01 0
20 1 1 1.0 -2.469221e+00  3.910862e-01 0
21 1 1 1.0 -2.500000e+00  3.061516e-16 0
22 1 1 1.0 -2.469221e+00 -3.910862e-01 0
23 1 1 1.0 -2.377641e+00 -7.725425e-01 0
24 1 1 1.0 -2.227516e+00 -1.134976e+00 0
25 1 1 1.0 -2.022542e+00 -1.469463e+00 0
26 1 1 1.0 -1.767767e+00 -1.767767e+00 0
27 1 1 1.0 -1.469463e+00 -2.022542e+00 0
28 1 1 1.0 -1.134976e+00 -2.227516e+00 0
29 1 1 1.0 -7.725425e-01 -2.377641e+00 0
30 1 1 1.0 -3.910862e-01 -2.469221e+00 0
31 1 1 1.0 -4.592274e-16 -2.500000e+00 0
32 1 1 1.0  3.910862e-01 -2.469221e+00 0
33 1 1 1.0  7.725425e-01 -2.377641e+00 0
34 1 1 1.0  1.134976e+00 -2.227516e+00 0
35 1 1 1.0  1.469463e+00 -2.022542e+00 0
36 1 1 1.0  1.767767e+00 -1.767767e+00 0
37 1 1 1.0  2.022542e+00 -1.469463e+00 0
38 1 1 1.0  2.227516e+00 -1.134976e+00 0
39 1 1 1.0  2.377641e+00 -7.725425e-01 0
40 1 1 1.0  2.469221e+00 -3.910862e-01 0
