# Generated using make_ls_sphere.py (uniform sphere sampling)

512 atoms
 1 atom types

-0.12 0.12 xlo xhi
-0.12 0.12 ylo yhi
-0.12 0.12 zlo zhi

Atoms

1 1 1 1.0 0.0 0.0 0.12
2 1 1 1.0 -0.007820963033088409 0.007164642796421706 0.1195303326810176
3 1 1 1.0 0.0013100970588731835 -0.014927880266327078 0.11906066536203522
4 1 1 1.0 0.011155775598432562 0.01455073379421308 0.11859099804305283
5 1 1 1.0 -0.020827358970212925 -0.003684066544005619 0.11812133072407044
6 1 1 1.0 0.019932745113904922 -0.012679580838496265 0.11765166340508806
7 1 1 1.0 -0.00671156106137189 0.024966672613614148 0.11718199608610567
8 1 1 1.0 -0.012857838220458306 -0.024756985075962853 0.11671232876712329
9 1 1 1.0 0.027985527438092718 0.010220269735415823 0.1162426614481409
10 1 1 1.0 -0.029180841557754612 0.012045427196702072 0.11577299412915851
11 1 1 1.0 0.014090204240401933 -0.030109948039966444 0.11530332681017612
12 1 1 1.0 0.0104244941340503 0.03323492996697482 0.11483365949119373
13 1 1 1.0 -0.031445128584592065 -0.018223094762768798 0.11436399217221134
14 1 1 1.0 0.036908560249844694 -0.008114243434278719 0.11389432485322896
15 1 1 1.0 -0.022531917095982835 0.032049333459818447 0.11342465753424658
16 1 1 1.0 -0.0052061426540063495 -0.040175443546222454 0.11295499021526419
17 1 1 1.0 0.0319606096340308 0.02693643563540505 0.1124853228962818
18 1 1 1.0 -0.04300384167354286 0.0017783438657046824 0.11201565557729941
19 1 1 1.0 0.03136113593647971 -0.031208518969169943 0.11154598825831702
20 1 1 1.0 -0.00209754482565879 0.04536134072408223 0.11107632093933463
21 1 1 1.0 -0.02981995668442896 -0.03573427427899157 0.11060665362035224
22 1 1 1.0 0.047217403533833295 0.006353034863355756 0.11013698630136987
23 1 1 1.0 -0.03998750661751364 0.027822265575067364 0.10966731898238748
24 1 1 1.0 0.01092098552527226 -0.04854487559315028 0.10919765166340509
25 1 1 1.0 0.025244969907503422 0.04405583860021529 0.1087279843444227
26 1 1 1.0 -0.04932094091249053 -0.015734725365441776 0.10825831702544031
27 1 1 1.0 0.047877759794817176 -0.022120739397413807 0.10778864970645792
28 1 1 1.0 -0.020727691118938647 0.04952775827952025 0.10731898238747553
29 1 1 1.0 -0.018485890067798466 -0.05139548363227213 0.10684931506849314
30 1 1 1.0 0.04915289282047892 0.025833382900203403 0.10637964774951077
31 1 1 1.0 -0.05455524492593655 0.014380587480216867 0.10590998043052838
32 1 1 1.0 0.030985520450008786 -0.04818960358190581 0.10544031311154599
33 1 1 1.0 0.009848847255170774 0.05730762366070037 0.1049706457925636
34 1 1 1.0 -0.04663702085476816 -0.03611833030271519 0.10450097847358121
35 1 1 1.0 0.05960787363145207 -0.004938390485966316 0.10403131115459882
36 1 1 1.0 -0.04116691873743054 0.04450023289524134 0.10356164383561643
37 1 1 1.0 0.00029960900910583826 -0.061416240623595915 0.10309197651663404
38 1 1 1.0 0.04179029412948652 0.04606769987217272 0.10262230919765165
39 1 1 1.0 -0.06269825880411384 -0.005810860533578858 0.10215264187866928
40 1 1 1.0 0.05075885702021259 -0.03852416279032788 0.10168297455968689
41 1 1 1.0 -0.011538357448239604 0.06342501671103766 0.1012133072407045
42 1 1 1.0 -0.03472457367369991 -0.05518082092994072 0.10074363992172211
43 1 1 1.0 0.0635733861869494 0.017422829482893813 0.10027397260273972
44 1 1 1.0 -0.05927675212079269 0.03041985050648121 0.09980430528375733
45 1 1 1.0 0.023403235393317928 -0.0631262090857042 0.09933463796477494
46 1 1 1.0 0.02564366183788692 0.06299301696815827 0.09886497064579255
47 1 1 1.0 -0.06207243776271117 -0.029417286642710018 0.09839530332681018
48 1 1 1.0 0.06627964892316264 -0.02043472414995434 0.09792563600782779
49 1 1 1.0 -0.03540199390574696 0.060407226342683876 0.0974559686888454
50 1 1 1.0 -0.01483645587969141 -0.06909078754453503 0.09698630136986301
51 1 1 1.0 0.05813197060992924 0.04129422894902764 0.09651663405088062
52 1 1 1.0 -0.07138508903261255 0.008896586165918428 0.09604696673189823
53 1 1 1.0 0.04703129497565162 -0.05525429512578258 0.09557729941291584
54 1 1 1.0 0.0026667223212926425 0.07312610279199977 0.09510763209393346
55 1 1 1.0 -0.05178798687128091 -0.05255149892320061 0.09463796477495108
56 1 1 1.0 0.07428260927428107 0.003798119751757806 0.09416829745596869
57 1 1 1.0 -0.05779471953072735 0.04775287535653538 0.0936986301369863
58 1 1 1.0 0.0104400177572659 -0.07482891500688231 0.09322896281800391
59 1 1 1.0 0.04317465974102804 0.06270296527893761 0.09275929549902152
60 1 1 1.0 -0.07474510132523615 -0.017198673154354232 0.09228962818003913
61 1 1 1.0 0.06722091658296703 -0.03808468407667042 0.09181996086105675
62 1 1 1.0 -0.024011964403169904 0.0740172239095587 0.09135029354207436
63 1 1 1.0 -0.03251966232064495 -0.0712964468949882 0.09088062622309198
64 1 1 1.0 0.07263746079510783 0.030816518286116947 0.09041095890410959
65 1 1 1.0 -0.07488111766473532 0.02652135526852254 0.0899412915851272
66 1 1 1.0 0.037548294149667864 -0.0706042070816451 0.08947162426614481
67 1 1 1.0 0.020136202029792633 0.07793064241613065 0.08900195694716243
68 1 1 1.0 -0.06792211511693395 -0.04414317581726554 0.08853228962818004
69 1 1 1.0 0.08040531553133475 -0.013414909106442103 0.08806262230919765
70 1 1 1.0 -0.05053756587003515 0.06460207947128313 0.08759295499021526
71 1 1 1.0 -0.006412000539166916 -0.08227040169126028 0.08712328767123287
72 1 1 1.0 0.060661166554827436 0.05666897698084487 0.0866536203522505
73 1 1 1.0 -0.0834964823041218 -0.0008146670466589486 0.0861839530332681
74 1 1 1.0 0.062476615019804504 -0.05612248925481598 0.08571428571428572
75 1 1 1.0 -0.008204420333875867 0.08405975566003152 0.08524461839530333
76 1 1 1.0 -0.05101502748443826 -0.06790194872586057 0.08477495107632094
77 1 1 1.0 0.08394228797825654 0.01569431169468977 0.08430528375733855
78 1 1 1.0 -0.07288926085967391 0.04537339603480475 0.08383561643835616
79 1 1 1.0 0.02321968336219791 -0.08313221296215596 0.08336594911937377
80 1 1 1.0 0.03923756160479531 0.07738617591650328 0.0828962818003914
81 1 1 1.0 -0.08162387794213409 -0.030714748490273686 0.082426614481409
82 1 1 1.0 0.08134415968339974 -0.03265251134624683 0.08195694716242662
83 1 1 1.0 -0.03811318404037281 0.07941793516593641 0.08148727984344423
84 1 1 1.0 -0.02566787570128816 -0.084718986170866 0.08101761252446184
85 1 1 1.0 0.07652137728471525 0.045348730319881535 0.08054794520547945
86 1 1 1.0 -0.08747116773330636 0.01833750872132689 0.08007827788649706
87 1 1 1.0 0.052355791928927455 -0.0729475165787338 0.07960861056751467
88 1 1 1.0 0.010719029440170209 0.08956634451269264 0.0791389432485323
89 1 1 1.0 -0.06871590796448199 -0.05907003485132864 0.0786692759295499
90 1 1 1.0 0.09097562969317693 -0.0028733282242022367 0.07819960861056752
91 1 1 1.0 -0.0654289744507198 0.06385221632123497 0.07772994129158513
92 1 1 1.0 0.005135957662465355 -0.091675907437929 0.07726027397260274
93 1 1 1.0 0.0583880291657929 0.07137254920418265 0.07679060665362035
94 1 1 1.0 -0.09165008078991325 -0.013242994762548426 0.07632093933463796
95 1 1 1.0 0.07684367512243945 -0.05236061618510621 0.07585127201565557
96 1 1 1.0 -0.021380325647199338 0.09088726725220761 0.0753816046966732
97 1 1 1.0 -0.04581263760382274 -0.08178877596652083 0.07491193737769081
98 1 1 1.0 0.08938294021703337 0.029479457706419257 0.07444227005870842
99 1 1 1.0 -0.08615828457439975 0.0387918038135303 0.07397260273972603
100 1 1 1.0 0.03747146340780315 -0.08713901488203582 0.07350293542074364
101 1 1 1.0 0.03135048911893742 0.08990711085548043 0.07303326810176125
102 1 1 1.0 -0.08416387777352657 -0.04528758681537772 0.07256360078277886
103 1 1 1.0 0.09299507229399381 -0.02354530285964806 0.07209393346379647
104 1 1 1.0 -0.05285985109801555 0.0804723594851826 0.07162426614481408
105 1 1 1.0 -0.015436621541432672 -0.09538728312160655 0.07115459882583171
106 1 1 1.0 0.07608565073299368 0.06012166174024899 0.07068493150684932
107 1 1 1.0 -0.09705449867228805 0.007088085954536021 0.07021526418786693
108 1 1 1.0 0.06700840019766005 -0.07103116231875467 0.06974559686888454
109 1 1 1.0 -0.0014339324341179367 0.09797341181550931 0.06927592954990215
110 1 1 1.0 -0.06534233008095963 -0.07345800281385835 0.06880626223091976
111 1 1 1.0 0.09812689877390272 0.010060891255650344 0.06833659491193737
112 1 1 1.0 -0.07941151993577701 0.05905836638938036 0.06786692759295498
113 1 1 1.0 0.01872265838867628 -0.09750421206503503 0.06739726027397261
114 1 1 1.0 0.05222396020382778 0.08481365032752777 0.06692759295499022
115 1 1 1.0 -0.0961011187602032 -0.027348109499491433 0.06645792563600783
116 1 1 1.0 0.08961324618892276 -0.044888928164626994 0.06598825831702544
117 1 1 1.0 -0.03586573684008642 0.09391998272225574 0.06551859099804305
118 1 1 1.0 -0.037107819608372006 -0.09376378433120253 0.06504892367906066
119 1 1 1.0 0.09096978996532287 0.044204264066312955 0.06457925636007827
120 1 1 1.0 -0.09722379934739124 0.028939478803876283 0.06410958904109589
121 1 1 1.0 0.05229326177860269 -0.08726611676795178 0.06363992172211351
122 1 1 1.0 0.02044656807666142 0.09995727493549504 0.06317025440313112
123 1 1 1.0 -0.08283104066314353 -0.06006375847350665 0.06270058708414873
124 1 1 1.0 0.10193398988690239 -0.01169505583220153 0.06223091976516634
125 1 1 1.0 -0.0674488416254098 0.07769299492019292 0.061761252446183953
126 1 1 1.0 -0.0027536737962020313 -0.10312981563650307 0.061291585127201564
127 1 1 1.0 0.071886567619614 0.07438424369448743 0.06082191780821918
128 1 1 1.0 -0.10352696268222457 -0.006306651938842045 0.06035225048923679
129 1 1 1.0 0.08080890797819064 -0.0654522468997809 0.059882583170254404
130 1 1 1.0 -0.015413391239572046 0.10311417361616954 0.059412915851272015
131 1 1 1.0 -0.058436114418083704 -0.08666552938843311 0.05894324853228963
132 1 1 1.0 0.10188686096370247 0.024493016618087757 0.058473581213307244
133 1 1 1.0 -0.09190106544374313 0.050889489516447214 0.058003913894324854
134 1 1 1.0 0.03347162111844853 -0.09984718849677603 0.057534246575342465
135 1 1 1.0 0.04286852700716495 0.09646721301318166 0.057064579256360076
136 1 1 1.0 -0.09700409516950285 -0.04227554213900157 0.056594911937377694
137 1 1 1.0 0.10032084663470067 -0.034433771896528464 0.056125244618395305
138 1 1 1.0 -0.0508319858669364 0.09337326131335806 0.055655577299412916
139 1 1 1.0 -0.02564967473725474 -0.10342441455239113 0.05518590998043053
140 1 1 1.0 0.088977017222272 0.05906964698761144 0.054716242661448145
141 1 1 1.0 -0.1057462889720128 0.01658407164304795 0.054246575342465755
142 1 1 1.0 0.06691931836286147 -0.08384419475004695 0.053776908023483366
143 1 1 1.0 0.007307633306859022 0.10726106741928723 0.05330724070450098
144 1 1 1.0 -0.07800992302978262 -0.07431448544945546 0.052837573385518595
145 1 1 1.0 0.10794982249740459 0.0021067123641544654 0.052367906066536206
146 1 1 1.0 -0.08119190035031243 0.07151536990330706 0.05189823874755382
147 1 1 1.0 0.011584379151415282 -0.10780029777552834 0.05142857142857143
148 1 1 1.0 0.06440743111360805 0.08749213055638515 0.050958904109589045
149 1 1 1.0 -0.1068070479951271 -0.021049737928740847 0.050489236790606656
150 1 1 1.0 0.09316007764427552 -0.05673836976144016 0.05001956947162427
151 1 1 1.0 -0.030426743381554187 0.10497152225178343 0.04954990215264188
152 1 1 1.0 -0.048565408954387664 -0.09814546144252377 0.049080234833659496
153 1 1 1.0 0.102302089292813 0.039639566751244075 0.04861056751467711
154 1 1 1.0 -0.1024032654656046 0.039950280979350716 0.04814090019569472
155 1 1 1.0 0.04861322925449754 -0.09881400456141795 0.04767123287671233
156 1 1 1.0 0.030958736704146467 0.10589413973673263 0.047201565557729946
157 1 1 1.0 -0.09452931911206718 -0.05727423081292593 0.04673189823874756
158 1 1 1.0 0.10858475747585532 -0.02166001925751695 0.04626223091976517
159 1 1 1.0 -0.06555116875931288 0.08947673101514354 0.04579256360078278
160 1 1 1.0 -0.012126306346387263 -0.11044812251470248 0.0453228962818004
161 1 1 1.0 0.08369138035744417 0.07337534126308802 0.04485322896281801
162 1 1 1.0 -0.11146382471320508 0.0024321258420840802 0.04438356164383562
163 1 1 1.0 0.0806813303385429 -0.07721458942472297 0.04391389432485323
164 1 1 1.0 -0.007346250498918074 0.11161824108751002 0.04344422700587085
165 1 1 1.0 -0.07009355011905609 -0.08740755946384403 0.04297455968688846
166 1 1 1.0 0.11090468081551694 0.017131430121301312 0.04250489236790607
167 1 1 1.0 -0.09349682104568977 0.0623809611134407 0.04203522504892368
168 1 1 1.0 0.026845534355628645 -0.10932347275749925 0.04156555772994129
169 1 1 1.0 0.05413461767489201 0.098896769211758 0.04109589041095891
170 1 1 1.0 -0.10688199461294523 -0.03641083938663457 0.04062622309197652
171 1 1 1.0 0.10356037369885772 -0.045416957491705115 0.04015655577299413
172 1 1 1.0 -0.045750418128683974 0.10359464332623292 0.03968688845401174
173 1 1 1.0 -0.03629456621725995 -0.1074463309264078 0.03921722113502936
174 1 1 1.0 0.09948274684886632 0.0547887776161955 0.03874755381604697
175 1 1 1.0 -0.11051942870008939 0.026837646788116398 0.03827788649706458
176 1 1 1.0 0.06345248654612273 -0.09457441786073129 0.03780821917808219
177 1 1 1.0 0.017119456885929765 0.11275086137584985 0.03733855185909981
178 1 1 1.0 -0.08890435054284161 -0.07167078768454428 0.03686888454011742
179 1 1 1.0 0.11411849272705353 -0.007215719187583114 0.03639921722113503
180 1 1 1.0 -0.07937618996889172 0.08251356197529675 0.03592954990215264
181 1 1 1.0 0.002795990716000018 -0.11460706419372158 0.03545988258317026
182 1 1 1.0 0.0754490802025586 0.0865050353005747 0.03499021526418787
183 1 1 1.0 -0.11420834664892637 -0.012836873656830804 0.03452054794520548
184 1 1 1.0 0.09299803522833205 -0.06776358145972373 0.03405088062622309
185 1 1 1.0 -0.022827548254632082 0.11292123428964122 0.03358121330724071
186 1 1 1.0 -0.05951497948440496 -0.09880077296883011 0.03311154598825832
187 1 1 1.0 0.11075177974371117 0.0326886989728982 0.03264187866927593
188 1 1 1.0 -0.10386416649578946 0.05076597024549973 0.03217221135029354
189 1 1 1.0 0.042341725466039586 -0.1077131699770335 0.03170254403131116
190 1 1 1.0 0.0415835357990731 0.10814488874986038 0.031232876712328772
191 1 1 1.0 -0.10382564308136488 -0.051709387799142935 0.030763209393346383
192 1 1 1.0 0.11160574137589428 -0.03203841132961708 0.030293542074363997
193 1 1 1.0 -0.060716442149181066 0.09911634651923193 0.029823874755381608
194 1 1 1.0 -0.02220451974912795 -0.11421597877920335 0.029354207436399223
195 1 1 1.0 0.09361913789400185 0.06929026166922163 0.028884540117416833
196 1 1 1.0 -0.11595157970463804 0.012158378504050639 0.028414872798434448
197 1 1 1.0 0.07736143731451307 -0.08737432979625005 0.02794520547945206
198 1 1 1.0 0.0019784834790571694 0.11679546397833981 0.027475538160469673
199 1 1 1.0 -0.08042838074779654 -0.08486435359077671 0.027005870841487284
200 1 1 1.0 0.11673765250829825 0.008255324915713768 0.026536203522504898
201 1 1 1.0 -0.0917377343885413 0.07283353471861638 0.02606653620352251
202 1 1 1.0 0.018462508231794697 -0.11577536911234002 0.02559686888454012
203 1 1 1.0 0.06464741212503777 0.09792515431195067 0.025127201565557734
204 1 1 1.0 -0.11391308322712895 -0.028562483690466316 0.024657534246575345
205 1 1 1.0 0.10337551119362798 -0.05593255562683642 0.02418786692759296
206 1 1 1.0 -0.038475279691730625 0.1111624930449529 0.02371819960861057
207 1 1 1.0 -0.04675593442245471 -0.1080434558067319 0.023248532289628185
208 1 1 1.0 0.10754244912242898 0.04812218768301022 0.022778864970645796
209 1 1 1.0 -0.1118897751385682 0.0371884110924312 0.02230919765166341
210 1 1 1.0 0.05742640497089035 -0.10307881900258271 0.02183953033268102
211 1 1 1.0 0.027304175358255554 0.11488172597407033 0.021369863013698635
212 1 1 1.0 -0.09780429388486916 -0.06631366312913732 0.020900195694716246
213 1 1 1.0 0.11699331594892177 -0.01718014940459187 0.02043052837573386
214 1 1 1.0 -0.07471283677100088 0.09175813886246191 0.01996086105675147
215 1 1 1.0 -0.006895369654769355 -0.11820552966761258 0.019491193737769086
216 1 1 1.0 0.08498588871846573 0.08255652761249083 0.019021526418786697
217 1 1 1.0 -0.11850649793765343 -0.0034696499094219128 0.01855185909980431
218 1 1 1.0 0.08978161895459111 -0.07753899172864048 0.018082191780821922
219 1 1 1.0 -0.013833567633970378 0.11789160864369215 0.017612524461839536
220 1 1 1.0 -0.06947440435392387 -0.09632979595455954 0.017142857142857147
221 1 1 1.0 0.11636355827042667 0.02411487192049864 0.01667318982387476
222 1 1 1.0 -0.10214802733753994 0.060854140117847656 0.016203522504892372
223 1 1 1.0 0.034232541361394524 -0.11393234357691949 0.015733855185909987
224 1 1 1.0 0.05174477634839426 0.1071890045173375 0.015264187866927598
225 1 1 1.0 -0.11061519342305016 -0.04410670182339221 0.01479452054794521
226 1 1 1.0 0.11141153444672103 -0.042216922817701515 0.014324853228962823
227 1 1 1.0 -0.05365927504194819 0.10643644124721775 0.013855185909980436
228 1 1 1.0 -0.03234465663332212 -0.11478088290008287 0.013385518590998048
229 1 1 1.0 0.1014273391888439 0.06281461335541579 0.01291585127201566
230 1 1 1.0 -0.1172690653015021 0.022204928018782027 0.012446183953033273
231 1 1 1.0 0.07150011531962225 -0.09562581533558302 0.011976516634050886
232 1 1 1.0 0.011876941866583338 0.11885508264579224 0.011506849315068499
233 1 1 1.0 -0.0890761760493478 -0.07964681709905845 0.011037181996086111
234 1 1 1.0 0.11952510051534102 -0.0014415201513758695 0.010567514677103724
235 1 1 1.0 -0.08718995472930131 0.08182875578324814 0.010097847358121336
236 1 1 1.0 0.009019549546463904 -0.11927256966760132 0.009628180039138949
237 1 1 1.0 0.07393951723979493 0.09406949258447606 0.009158512720156562
238 1 1 1.0 -0.1180982871531613 -0.019424174038654804 0.008688845401174174
239 1 1 1.0 0.10023061366240821 -0.06546960513482791 0.008219178082191787
240 1 1 1.0 -0.029690617605957682 0.11601039741810945 0.0077495107632094
241 1 1 1.0 -0.05648485721920106 -0.10562416761496403 0.007279843444227012
242 1 1 1.0 0.1130243333430346 0.03973816268407162 0.006810176125244625
243 1 1 1.0 -0.11020707280062951 0.04705527656697447 0.006340508806262237
244 1 1 1.0 0.04948776270570754 -0.10916269767010531 0.005870841487279849
245 1 1 1.0 0.0372544694624322 0.11394266901681926 0.005401174168297462
246 1 1 1.0 -0.10445508576515827 -0.05886268170911503 0.004931506849315074
247 1 1 1.0 0.11680101797793721 -0.027159053505657133 0.004461839530332687
248 1 1 1.0 -0.0677891154313885 0.0989378511494201 0.0039921722113503
249 1 1 1.0 -0.016848040805308523 -0.11875914903832 0.0035225048923679123
250 1 1 1.0 0.09265381571130626 0.07619678875704552 0.003052837573385525
251 1 1 1.0 -0.11980124811326306 0.006402201335567929 0.0025831702544031375
252 1 1 1.0 0.08401952458738383 -0.08565192696870264 0.00211350293542075
253 1 1 1.0 -0.004096588299802687 0.11991878822256356 0.0016438356164383628
254 1 1 1.0 -0.07798686519238095 -0.09119577943235448 0.0011741682974559752
255 1 1 1.0 0.11911060056546405 0.014566005331105854 0.0007045009784735878
256 1 1 1.0 -0.09766914130216364 0.06971860361804703 0.00023483365949120038
257 1 1 1.0 0.02492394507139243 -0.11738288552949525 -0.00023483365949118705
258 1 1 1.0 0.06091192536447403 0.10338878578822788 -0.0007045009784735878
259 1 1 1.0 -0.11474916353435896 -0.03508918347545564 -0.001174168297455962
260 1 1 1.0 0.10830988656984676 -0.051635901034968464 -0.0016438356164383628
261 1 1 1.0 -0.04498203254802592 0.1112301661114929 -0.0021135029354207367
262 1 1 1.0 -0.04196333130603984 -0.1123939769611179 -0.0025831702544031375
263 1 1 1.0 0.1068536681161311 0.05452498319924758 -0.0030528375733855115
264 1 1 1.0 -0.11560925951903973 0.03197015909786133 -0.0035225048923679123
265 1 1 1.0 0.06364333024978609 -0.10165426245736862 -0.003992172211350287
266 1 1 1.0 0.021734856173484238 0.11793086116502122 -0.004461839530332687
267 1 1 1.0 -0.09567307920885997 -0.07226577443638424 -0.004931506849315061
268 1 1 1.0 0.11934103172453944 -0.011337789225690705 -0.005401174168297462
269 1 1 1.0 -0.08032499646011645 0.08895745142433831 -0.005870841487279836
270 1 1 1.0 -0.0008605706800648634 -0.11982928425965969 -0.006340508806262237
271 1 1 1.0 0.08156053042427037 0.08775819835237508 -0.006810176125244611
272 1 1 1.0 -0.11939247605263105 -0.009614600431087365 -0.007279843444227012
273 1 1 1.0 0.09450760770581278 -0.07354085373895994 -0.007749510763209386
274 1 1 1.0 -0.02000560208798803 0.11803482959173663 -0.008219178082191787
275 1 1 1.0 -0.06496186928577549 -0.10052094062677841 -0.00868884540117416
276 1 1 1.0 0.11576789340889067 0.03023105192384907 -0.009158512720156562
277 1 1 1.0 -0.10575181960962776 0.05589141972062145 -0.009628180039138935
278 1 1 1.0 0.0402109634242871 -0.11261044311795741 -0.010097847358121336
279 1 1 1.0 0.046401191233263764 0.11016014290878204 -0.01056751467710371
280 1 1 1.0 -0.10858832349923857 -0.049867390278718046 -0.011037181996086111
281 1 1 1.0 0.11371240238840086 -0.03656613134990787 -0.011506849315068485
282 1 1 1.0 -0.059125053577163834 0.10373423296487909 -0.011976516634050886
283 1 1 1.0 -0.026463840562063037 -0.11638194725864043 -0.01244618395303326
284 1 1 1.0 0.09808745221798837 0.06791194669057143 -0.01291585127201566
285 1 1 1.0 -0.11814919155811462 0.016173942815961198 -0.013385518590998036
286 1 1 1.0 0.07615991286055696 -0.09169351938099145 -0.013855185909980436
287 1 1 1.0 0.005777440070304875 0.11900176371047072 -0.01432485322896281
288 1 1 1.0 -0.08460385431251265 -0.08380519075345848 -0.01479452054794521
289 1 1 1.0 0.11893459696529358 0.004643943740649233 -0.015264187866927586
290 1 1 1.0 -0.09078892350274168 0.07687533525261618 -0.015733855185909987
291 1 1 1.0 0.015008423916133835 -0.1179499600253729 -0.01620352250489236
292 1 1 1.0 0.06856983133088103 0.09705762706944553 -0.01667318982387476
293 1 1 1.0 -0.11605742766004912 -0.025234815908027883 -0.017142857142857133
294 1 1 1.0 0.10256361409136788 -0.05975369483637031 -0.017612524461839536
295 1 1 1.0 -0.03524319049391791 0.11327379160340219 -0.018082191780821908
296 1 1 1.0 -0.05049721748060809 -0.10726536976423087 -0.01855185909980431
297 1 1 1.0 0.10962291253242472 0.044955517799350905 -0.019021526418786683
298 1 1 1.0 -0.11112787669942635 0.040874055181176275 -0.019491193737769086
299 1 1 1.0 0.05429629486119395 -0.10513551440982892 -0.019960861056751458
300 1 1 1.0 0.03096062615207413 0.11412288612964464 -0.02043052837573386
301 1 1 1.0 -0.09984892295467938 -0.06319315156496838 -0.020900195694716232
302 1 1 1.0 0.1162291332821644 -0.02083548730537917 -0.021369863013698635
303 1 1 1.0 -0.0715774299731096 0.09380675046761026 -0.02183953033268101
304 1 1 1.0 -0.010578694145188588 -0.1174324952060611 -0.02230919765166341
305 1 1 1.0 0.08705852968209289 0.0793847322867643 -0.022778864970645785
306 1 1 1.0 -0.11772608982015927 0.0002711494678382024 -0.023248532289628185
307 1 1 1.0 0.08655543294906798 -0.07965929973534479 -0.02371819960861056
308 1 1 1.0 -0.010006053729113675 0.11711031543917533 -0.02418786692759296
309 1 1 1.0 -0.0716691477484763 -0.09303515070061444 -0.024657534246575335
310 1 1 1.0 0.11559283053205412 0.020172289683415983 -0.025127201565557734
311 1 1 1.0 -0.09877517673547821 0.06315270987204512 -0.02559686888454011
312 1 1 1.0 0.0301480522068181 -0.11318847396482302 -0.02606653620352251
313 1 1 1.0 0.05417863598726135 0.10373285547584249 -0.026536203522504884
314 1 1 1.0 -0.10991912647619323 -0.039855596530519254 -0.027005870841487284
315 1 1 1.0 0.10787191488190095 -0.044819022551863964 -0.02747553816046966
316 1 1 1.0 -0.04921956535506434 0.10581351462346268 -0.02794520547945206
317 1 1 1.0 -0.03514881834067715 -0.11116274363788825 -0.028414872798434434
318 1 1 1.0 0.10090695891491451 0.058167593939831244 -0.028884540117416833
319 1 1 1.0 -0.11358261300128004 0.02524520805187181 -0.02935420743639921
320 1 1 1.0 0.06663088924789866 -0.09524106830884235 -0.029823874755381608
321 1 1 1.0 0.015186978929159866 0.11511584156663232 -0.030293542074363983
322 1 1 1.0 -0.08886338370467536 -0.07454477838438292 -0.030763209393346383
323 1 1 1.0 0.11575390167429533 -0.005053875686049051 -0.031232876712328758
324 1 1 1.0 -0.08184922182840518 0.08182697347468802 -0.03170254403131116
325 1 1 1.0 0.005074050890247498 -0.1154954666833085 -0.03217221135029353
326 1 1 1.0 0.0741899844819131 0.08848928725847983 -0.03264187866927593
327 1 1 1.0 -0.11434639882304556 -0.015117096231368584 -0.03311154598825831
328 1 1 1.0 0.0944155801057672 -0.06601515239780226 -0.03358121330724071
329 1 1 1.0 -0.024996549752224134 0.11231967783546784 -0.03405088062622308
330 1 1 1.0 -0.05736927546881405 -0.0995846273364825 -0.03452054794520548
331 1 1 1.0 0.10943527111497121 0.03463533270749018 -0.03499021526418786
332 1 1 1.0 -0.10395921136070006 0.04832265618164082 -0.03545988258317026
333 1 1 1.0 0.043958620850363866 -0.10571994654161851 -0.03592954990215263
334 1 1 1.0 0.038948515539713964 0.10750865138648742 -0.03639921722113503
335 1 1 1.0 -0.10120702968192428 -0.05289444673809895 -0.03686888454011741
336 1 1 1.0 0.11020902998223486 -0.029322384886638606 -0.03733855185909981
337 1 1 1.0 -0.061374276706499545 0.09593610749522896 -0.037808219178082185
338 1 1 1.0 -0.019521480393881817 -0.1120433630722906 -0.03827788649706458
339 1 1 1.0 0.08995268112937113 0.06933355775459833 -0.038747553816046956
340 1 1 1.0 -0.11300171206807838 0.009624065467842174 -0.03921722113502936
341 1 1 1.0 0.07671222984030276 -0.08330777081261623 -0.039686888454011734
342 1 1 1.0 -0.0002911935742642974 0.11308123732411456 -0.04015655577299413
343 1 1 1.0 -0.07605747624676938 -0.08345519938417897 -0.040626223091976506
344 1 1 1.0 0.11228619260227966 0.010145873161744619 -0.04109589041095891
345 1 1 1.0 -0.0895127701107299 0.06826249627505968 -0.041565557729941284
346 1 1 1.0 0.01986243405968883 -0.11062786072373834 -0.04203522504892368
347 1 1 1.0 0.05998761193508107 0.09484102772070134 -0.042504892367906055
348 1 1 1.0 -0.10812443108203998 -0.02936485353110493 -0.04297455968688846
349 1 1 1.0 0.0994021752814604 -0.051301137308798386 -0.043444227005870834
350 1 1 1.0 -0.03857924280027709 0.10480082017896086 -0.04391389432485323
351 1 1 1.0 -0.042274342845886645 -0.10316481664189724 -0.044383561643835605
352 1 1 1.0 0.10068843682245016 0.047434444677475575 -0.04485322896281801
353 1 1 1.0 -0.10610418562006135 0.03298085606124756 -0.04532289628180038
354 1 1 1.0 0.055862606380184136 -0.0958248940895886 -0.04579256360078278
355 1 1 1.0 0.023496044690558153 0.10820231917212134 -0.046262230919765154
356 1 1 1.0 -0.09025367060285046 -0.0637997228028109 -0.04673189823874756
357 1 1 1.0 0.10944817322633353 -0.013896387527620666 -0.04720156555772993
358 1 1 1.0 -0.07118614574356218 0.0840237240914171 -0.04767123287671233
359 1 1 1.0 -0.00425883826293588 -0.10983768035150011 -0.048140900195694704
360 1 1 1.0 0.0771890606072572 0.07796705489160273 -0.04861056751467711
361 1 1 1.0 -0.10937374892177923 -0.005339812306479837 -0.04908023483365948
362 1 1 1.0 0.08409288670729442 -0.06980826313480203 -0.04954990215264188
363 1 1 1.0 -0.014823570320881151 0.10806620393451066 -0.05001956947162425
364 1 1 1.0 -0.06194398367019719 -0.0895197176903971 -0.050489236790606656
365 1 1 1.0 0.10593167013075323 0.024117863820392407 -0.05095890410958903
366 1 1 1.0 -0.09420959892255414 0.053662403148459645 -0.05142857142857143
367 1 1 1.0 0.033150153377122966 -0.10299339855532065 -0.0518982387475538
368 1 1 1.0 0.0450326638618619 0.09813083918784654 -0.052367906066536206
369 1 1 1.0 -0.09928103817012618 -0.04185052327739625 -0.05283757338551858
370 1 1 1.0 0.10125823441513618 -0.036126279238273676 -0.05330724070450098
371 1 1 1.0 -0.0501522483078626 0.09483035459756704 -0.05377690802348335
372 1 1 1.0 -0.02701652603211606 -0.10357324164459747 -0.054246575342465755
373 1 1 1.0 0.08968289851557407 0.05799233141423754 -0.05471624266144813
374 1 1 1.0 -0.10506409619435954 0.017777824121477367 -0.05518590998043053
375 1 1 1.0 0.06531200775634155 -0.08388562664905505 -0.0556555772994129
376 1 1 1.0 0.00848510920162243 0.10572587118752833 -0.056125244618395305
377 1 1 1.0 -0.0774904787001857 -0.0720572109758387 -0.05659491193737768
378 1 1 1.0 0.10556047909091415 0.0007867962832111911 -0.057064579256360076
379 1 1 1.0 -0.07817899782108549 0.07055391392898344 -0.05753424657534245
380 1 1 1.0 0.009963808621621521 -0.10457661541038439 -0.058003913894324854
381 1 1 1.0 0.06313641143270508 0.08363392763401076 -0.05847358121330723
382 1 1 1.0 -0.10278964517969787 -0.01897319942161966 -0.05894324853228963
383 1 1 1.0 0.08838439359388216 -0.0553019384749883 -0.059412915851272
384 1 1 1.0 -0.027744198077557982 0.10022143336577656 -0.059882583170254404
385 1 1 1.0 -0.04711739148075061 -0.09239890302884612 -0.06035225048923678
386 1 1 1.0 0.09690012078950158 0.03620857502181261 -0.06082191780821918
387 1 1 1.0 -0.0956523045447612 0.03865201453832986 -0.06129158512720155
388 1 1 1.0 0.04430120083784562 -0.09285984762319828 -0.061761252446183953
389 1 1 1.0 0.029976800434657808 0.09812596017814108 -0.06223091976516633
390 1 1 1.0 -0.08814042697020745 -0.05196057652502145 -0.06270058708414873
391 1 1 1.0 0.09980786125256129 -0.021163879389969338 -0.06317025440313111
392 1 1 1.0 -0.05912933045993678 0.08278697145422614 -0.06363992172211351
393 1 1 1.0 -0.01228590075577 -0.10069268710090702 -0.06410958904109587
394 1 1 1.0 0.0768494761433076 0.06575467789046252 -0.06457925636007827
395 1 1 1.0 -0.10078180630596952 0.0034154129913947875 -0.06504892367906065
396 1 1 1.0 0.07178883912611614 -0.07038236150169845 -0.06551859099804305
397 1 1 1.0 -0.005375752759088723 0.10008322060444834 -0.06598825831702543
398 1 1 1.0 -0.06344398039921292 -0.0771894129480406 -0.06645792563600783
399 1 1 1.0 0.09861145209040377 0.014017090207070312 -0.0669275929549902
400 1 1 1.0 -0.08191970215109863 0.05609609350959908 -0.06739726027397261
401 1 1 1.0 0.022440011378495325 -0.09638737483937201 -0.06786692759295497
402 1 1 1.0 0.048403317693792434 0.08594898854597169 -0.06833659491193737
403 1 1 1.0 -0.09343799254957051 -0.030578420922544494 -0.06880626223091975
404 1 1 1.0 0.0892527551871452 -0.04043255218880599 -0.06927592954990215
405 1 1 1.0 -0.038369266372812655 0.08979616425780773 -0.06974559686888453