# Generated using make_ls_sphere.py (uniform sphere sampling)

4092 atoms
 1 atom types

-0.12 0.12 xlo xhi
-0.12 0.12 ylo yhi
-0.12 0.12 zlo zhi

Atoms

1 1 1 1.0 0.0 0.0 0.12
2 1 1 1.0 -0.0027664843625792444 0.002534326294077834 0.11994133463700805
3 1 1 1.0 0.0004638147507226569 -0.005284929858936795 0.11988266927401613
4 1 1 1.0 0.0039528904433256545 0.005155845602218999 0.1198240039110242
5 1 1 1.0 -0.007386249306441155 -0.0013065235008654758 0.11976533854803226
6 1 1 1.0 0.0070750979491518255 -0.0045005981802260266 0.11970667318504033
7 1 1 1.0 -0.0023843242055298264 0.008869567199022214 0.11964800782204839
8 1 1 1.0 -0.004571797398934474 -0.008802717691350158 0.11958934245905646
9 1 1 1.0 0.009959341273607826 0.0036371354596941904 0.11953067709606453
10 1 1 1.0 -0.010393788488726513 0.0042904047949091735 0.11947201173307259
11 1 1 1.0 0.005023115258516405 -0.010734105542559345 0.11941334637008066
12 1 1 1.0 0.003719559320207833 0.011858541232358594 0.11935468100708872
13 1 1 1.0 -0.011229783290991632 -0.006507888957317584 0.1192960156440968
14 1 1 1.0 0.013192510979650504 -0.002900336530973989 0.11923735028110487
15 1 1 1.0 -0.008060866462336487 0.0114657530527018 0.11917868491811293
16 1 1 1.0 -0.0018641623574850645 -0.014385612252960523 0.11912001955512098
17 1 1 1.0 0.01145427702382666 0.0096536768020183 0.11906135419212907
18 1 1 1.0 -0.015425729546179594 0.0006379023465093126 0.11900268882913713
19 1 1 1.0 0.01125944414868785 -0.011204650782049377 0.11894402346614519
20 1 1 1.0 -0.0007537442370066172 0.01630041405333591 0.11888535810315326
21 1 1 1.0 -0.010725270000792868 -0.012852457969018401 0.11882669274016132
22 1 1 1.0 0.016997798905201252 0.0022870298017906915 0.11876802737716939
23 1 1 1.0 -0.014408048474778015 0.010024744851386868 0.11870936201417746
24 1 1 1.0 0.003938526874770519 -0.0175071468333667 0.11865069665118552
25 1 1 1.0 0.009112528163536342 0.01590257669086583 0.11859203128819358
26 1 1 1.0 -0.017819205088848697 -0.0056848124369928725 0.11853336592520167
27 1 1 1.0 0.017313491091658598 -0.00799927202399065 0.11847470056220973
28 1 1 1.0 -0.007502336122641168 0.01792644862767095 0.11841603519921778
29 1 1 1.0 -0.006697020563554769 -0.01861942321937438 0.11835736983622586
30 1 1 1.0 0.017823251842851683 0.009367401651511937 0.11829870447323391
31 1 1 1.0 -0.019800305318041903 0.00521929693740105 0.118240039110242
32 1 1 1.0 0.011256221069105976 -0.017506010009599803 0.11818137374725006
33 1 1 1.0 0.0035811176713571786 0.02083749889481481 0.11812270838425812
34 1 1 1.0 -0.01697322208836486 -0.013145017208495762 0.11806404302126619
35 1 1 1.0 0.021713926560765935 -0.001798954430142211 0.11800537765827426
36 1 1 1.0 -0.015010158547059806 0.016225541566493973 0.11794671229528232
37 1 1 1.0 0.00010934398898212096 -0.022414201622680454 0.1178880469322904
38 1 1 1.0 0.015265799349073919 0.01682831569796821 0.11782938156929845
39 1 1 1.0 -0.022924751269315792 -0.002124660794953981 0.11777071620630651
40 1 1 1.0 0.018576631826399712 -0.014099001249993297 0.1177120508433146
41 1 1 1.0 -0.004226745291715749 0.02323393012939394 0.11765338548032266
42 1 1 1.0 -0.01273230183986016 -0.020232901185577565 0.11759472011733071
43 1 1 1.0 0.023332121647874456 0.006394367223882475 0.11753605475433879
44 1 1 1.0 -0.021775751201722433 0.011174955990720813 0.11747738939134686
45 1 1 1.0 0.00860548760488402 -0.023211825232738865 0.11741872402835492
46 1 1 1.0 0.009438249261026778 0.02318482436744528 0.11736005866536299
47 1 1 1.0 -0.02286772752690769 -0.01083744282926406 0.11730139330237105
48 1 1 1.0 0.02444095678601969 -0.0075354081984089554 0.11724272793937912
49 1 1 1.0 -0.013067139237717908 0.02229675649585524 0.1171840625763872
50 1 1 1.0 -0.005481491649907123 -0.025526350638044218 0.11712539721339525
51 1 1 1.0 0.02149811731390436 0.015271255541813506 0.11706673185040332
52 1 1 1.0 -0.026424738174781883 0.003293264227440822 0.11700806648741138
53 1 1 1.0 0.017426450675163914 -0.02047330929541472 0.11694940112441946
54 1 1 1.0 0.0009890531604671844 0.02712153511506857 0.11689073576142753
55 1 1 1.0 -0.01922612336013178 -0.01950957475077264 0.11683207039843559
56 1 1 1.0 0.027603981558084724 0.001411410134985926 0.11677340503544364
57 1 1 1.0 -0.021497880890770253 0.017762619750421964 0.11671473967245172
58 1 1 1.0 0.003887162339984914 -0.027861268737234445 0.11665607430945979
59 1 1 1.0 0.016091085935314546 0.02336923576825865 0.11659740894646785
60 1 1 1.0 -0.027884650140395012 -0.006416192837860955 0.11653874358347592
61 1 1 1.0 0.02510232677033808 -0.014221974844060889 0.11648007822048398
62 1 1 1.0 -0.008975639015074328 0.027667535714921518 0.11642141285749205
63 1 1 1.0 -0.012167823771201968 -0.02667686376252233 0.11636274749450012
64 1 1 1.0 0.02720556806580218 0.011541990546019436 0.11630408213150818
65 1 1 1.0 -0.028073773511595616 0.009943154486056864 0.11624541676851624
66 1 1 1.0 0.014091300875074169 -0.026496679744432646 0.11618675140552431
67 1 1 1.0 0.007564355261945841 0.029275384908985663 0.11612808604253239
68 1 1 1.0 -0.025541130914769217 -0.016599404046847184 0.11606942067954046
69 1 1 1.0 0.0302656032315369 -0.005049545713734331 0.11601075531654852
70 1 1 1.0 -0.019042134987189714 0.024341526873472172 0.11595208995355658
71 1 1 1.0 -0.0024184254957557564 -0.031030071781943742 0.11589342459056466
72 1 1 1.0 0.022902815090915036 0.021395551303988652 0.11583475922757272
73 1 1 1.0 -0.03155631936738092 -0.0003078919350016943 0.11577609386458078
74 1 1 1.0 0.02363615465875133 -0.021232261630058636 0.11571742850158885
75 1 1 1.0 -0.003107059144261799 0.03183389220192835 0.11565876313859691
76 1 1 1.0 -0.01933940698937246 -0.025741109757933475 0.11560009777560498
77 1 1 1.0 0.03185446895583146 0.005955686659281139 0.11554143241261305
78 1 1 1.0 -0.027688459027146974 0.017236001603183563 0.11548276704962111
79 1 1 1.0 0.00882954543042545 -0.03161195782179173 0.11542410168662917
80 1 1 1.0 0.014935921416974703 0.02945733106177057 0.11536543632363726
81 1 1 1.0 -0.03110257462448787 -0.011703778123214915 0.11530677096064532
82 1 1 1.0 0.031028140994043385 -0.01245506413495726 0.11524810559765337
83 1 1 1.0 -0.014553117461823585 0.030324901163362814 0.11518944023466145
84 1 1 1.0 -0.009811226911487477 -0.032382780979098386 0.1151307748716695
85 1 1 1.0 0.02927992314921189 0.017352109773717955 0.11507210950867758
86 1 1 1.0 -0.03350479908018719 0.007023966425285243 0.11501344414568565
87 1 1 1.0 0.020075341829832272 -0.027971047271014668 0.11495477878269371
88 1 1 1.0 0.004114442434674327 0.03437956492596693 0.11489611341970178
89 1 1 1.0 -0.02640409710942795 -0.022697669035792283 0.11483744805670985
90 1 1 1.0 0.03499442061944639 -0.0011052460619901726 0.11477878269371791
91 1 1 1.0 -0.0251944430075994 0.02458728779595849 0.11472011733072598
92 1 1 1.0 0.0019797858053744333 -0.0353388154982005 0.11466145196773404
93 1 1 1.0 0.022531179500652195 0.027541736559943575 0.1146027866047421
94 1 1 1.0 -0.03540442347776297 -0.0051157684821011426 0.11454412124175019
95 1 1 1.0 0.029716564147088363 -0.020248610014637552 0.11448545587875825
96 1 1 1.0 -0.008276978190128232 0.03518524185366748 0.1144267905157663
97 1 1 1.0 -0.017754606875574043 -0.03169709582490414 0.11436812515277438
98 1 1 1.0 0.034677670591227644 0.011437069770461885 0.11430945978978245
99 1 1 1.0 -0.033462862847934156 0.015066279662464798 0.11425079442679051
100 1 1 1.0 0.014569301583442973 -0.03388057129458494 0.11419212906379858
101 1 1 1.0 0.012202693259949243 0.03499495307698299 0.11413346370080664
102 1 1 1.0 -0.03279530521647219 -0.017646765707781644 0.1140747983378147
103 1 1 1.0 0.03627619445017056 -0.009184723059567051 0.11401613297482278
104 1 1 1.0 -0.020642621493102357 0.03142574984612192 0.11395746761183084
105 1 1 1.0 -0.006034893225286364 -0.03729132486301982 0.11389880224883892
106 1 1 1.0 0.029778293793360833 0.023530330481485173 0.11384013688584697
107 1 1 1.0 -0.0380271469102574 0.0027771993013512414 0.11378147152285505
108 1 1 1.0 0.026283890691034446 -0.027861809870644662 0.11372280615986312
109 1 1 1.0 -0.0005630834189808853 0.0384726660627037 0.11366414079687118
110 1 1 1.0 -0.025687606460089597 -0.02887806824899862 0.11360547543387924
111 1 1 1.0 0.03861921098594363 0.003959604216208358 0.11354681007088731
112 1 1 1.0 -0.031288624373526995 0.023269357437886617 0.11348814470789538
113 1 1 1.0 0.007385152294810459 -0.03846053485232073 0.11342947934490344
114 1 1 1.0 0.02062301111229547 0.03349253573172618 0.11337081398191151
115 1 1 1.0 -0.03799289665299668 -0.010811881394031109 0.11331214861891957
116 1 1 1.0 0.035468206247075036 -0.01776667881215457 0.11325348325592764
117 1 1 1.0 -0.014211541803976277 0.037215121681098334 0.11319481789293571
118 1 1 1.0 -0.014720503938992753 -0.037195668491148186 0.11313615252994377
119 1 1 1.0 0.03612864052897941 0.017555717858738426 0.11307748716695183
120 1 1 1.0 -0.0386567728725177 0.011506512465874986 0.1130188218039599
121 1 1 1.0 0.02081606892110819 -0.03473750612095971 0.11296015644096798
122 1 1 1.0 0.008148446028690349 0.03983536292902596 0.11290149107797604
123 1 1 1.0 -0.033048388486042225 -0.023964571832881816 0.11284282571498411
124 1 1 1.0 0.04071743513768851 -0.004671578909131839 0.11278416035199217
125 1 1 1.0 -0.02697376278094643 0.031070547161614465 0.11272549498900025
126 1 1 1.0 -0.0011025203520710158 -0.04129128177832804 0.11266682962600831
127 1 1 1.0 0.028815781307383888 0.02981697652275539 0.11260816426301637
128 1 1 1.0 -0.04154761552180796 -0.0025309962081005166 0.11254949890002444
129 1 1 1.0 0.03246858092542489 -0.026298357797261373 0.1124908335370325
130 1 1 1.0 -0.0062003353182784006 0.04147967456026102 0.11243216817404057
131 1 1 1.0 -0.023534917743999146 -0.03490420480054568 0.11237350281104865
132 1 1 1.0 0.04108330725385548 0.00987619127507686 0.1123148374480567
133 1 1 1.0 -0.037100957061718995 0.020544362095543587 0.11225617208506476
134 1 1 1.0 0.013528827600306308 -0.040357035435120946 0.11219750672207285
135 1 1 1.0 0.017347717121733178 0.03903763529348582 0.1121388413590809
136 1 1 1.0 -0.03930209568632203 -0.017128322257270477 0.11208017599608897
137 1 1 1.0 0.04069492189827521 -0.013967980783642545 0.11202151063309704
138 1 1 1.0 -0.020644816582100475 0.03792245808638903 0.1119628452701051
139 1 1 1.0 -0.010429951144071695 -0.04205556608165826 0.11190417990711317
140 1 1 1.0 0.03622482211001728 0.024048765861440096 0.11184551454412124
141 1 1 1.0 -0.04310455004484851 0.006760038134995999 0.1117868491811293
142 1 1 1.0 0.027311189461965632 -0.0342185895511946 0.11172818381813737
143 1 1 1.0 0.002986060144882099 0.04382923787618349 0.11166951845514544
144 1 1 1.0 -0.03191581453503722 -0.03040391840876492 0.1116108530921535
145 1 1 1.0 0.0442195057693005 0.0008629729756454658 0.11155218772916158
146 1 1 1.0 -0.03329983831858444 0.029331130873878123 0.11149352236616963
147 1 1 1.0 0.004757088768318372 -0.04426785234379094 0.11143485700317769
148 1 1 1.0 0.02648165721433493 0.035973125620538934 0.11137619164018578
149 1 1 1.0 -0.0439694880031275 -0.00866559105134125 0.11131752627719384
150 1 1 1.0 0.03839947504066947 -0.02338688061018994 0.1112588609142019
151 1 1 1.0 -0.012557306907948993 0.04332240243329354 0.11120019555120997
152 1 1 1.0 -0.020068519339582886 -0.04055631638768744 0.11114153018821804
153 1 1 1.0 0.042327409522485704 0.01640083977533867 0.1110828648252261
154 1 1 1.0 -0.04242301875475602 0.016550365962831767 0.11102419946223417
155 1 1 1.0 0.0201648265671981 -0.040988169166049984 0.11096553409924223
156 1 1 1.0 0.012858111787606808 0.043981080345729937 0.11090686873625029
157 1 1 1.0 -0.039311185609965306 -0.02381819671720778 0.11084820337325837
158 1 1 1.0 0.04521430224317992 -0.009019154069761896 0.11078953801026643
159 1 1 1.0 -0.02733043100234281 0.037305782179164325 0.1107308726472745
160 1 1 1.0 -0.005062387429498741 -0.046108944558929624 0.11067220728428256
161 1 1 1.0 0.03498405243219582 0.030671817993856362 0.11061354192129064
162 1 1 1.0 -0.046653863544774854 0.0010179811024093523 0.11055487655829871
163 1 1 1.0 0.0338137059906537 -0.03236078797958716 0.11049621119530677
164 1 1 1.0 -0.003082856227892879 0.04684062839046357 0.11043754583231483
165 1 1 1.0 -0.029453383398139295 -0.036728748314380937 0.1103788804693229
166 1 1 1.0 0.046663616596706516 0.007208122155488193 0.11032021510633097
167 1 1 1.0 -0.03939113988783334 0.02628171886567383 0.11026154974333903
168 1 1 1.0 0.011325274877591772 -0.04612008698169202 0.1102028843803471
169 1 1 1.0 0.022868021328852083 0.04177684307795484 0.11014421901735516
170 1 1 1.0 -0.04521022955891733 -0.015401494078248062 0.11008555365436323
171 1 1 1.0 0.043863800861351866 -0.019236705199013875 0.1100268882913713
172 1 1 1.0 -0.019403946262307695 0.04393719171071057 0.10996822292837936
173 1 1 1.0 -0.015414193746095857 -0.04563213546327418 0.10990955756538742
174 1 1 1.0 0.04230708027404394 0.02330005238241509 0.1098508922023955
175 1 1 1.0 -0.047064330729839635 0.011428722526915368 0.10979222683940357
176 1 1 1.0 0.027057755569777995 -0.040328939351645936 0.10973356147641163
177 1 1 1.0 0.007310126340335061 0.048145396616903424 0.1096748961134197
178 1 1 1.0 -0.038014703860342614 -0.030645786765547838 0.10961623075042776
179 1 1 1.0 0.048863014316614786 -0.0030896113464348343 0.10955756538743584
180 1 1 1.0 -0.0340339260536843 0.03537912902841431 0.1094989000244439
181 1 1 1.0 0.0012004858812337661 -0.04920766069318156 0.10944023466145196
182 1 1 1.0 0.03243969625289235 0.037193257518349586 0.10938156929846003
183 1 1 1.0 -0.049172710861543754 -0.005526950483171563 0.10932290393546809
184 1 1 1.0 0.040096415489050775 -0.029216495924501613 0.10926423857247616
185 1 1 1.0 -0.009855950630924563 0.04875451791525332 0.10920557320948424
186 1 1 1.0 -0.02573208802076099 -0.04271782009467625 0.1091469078464923
187 1 1 1.0 0.047952468991496765 0.014153305955873642 0.10908824248350035
188 1 1 1.0 -0.045033900122856116 0.022011341454980043 0.10902957712050844
189 1 1 1.0 0.018384760941380352 -0.046769017050434646 0.1089709117575165
190 1 1 1.0 0.018081253348983625 0.047023301273179864 0.10891224639452456
191 1 1 1.0 -0.04520968794135015 -0.022516261076326573 0.10885358103153263
192 1 1 1.0 0.048667078001044084 -0.013970749568845963 0.10879491566854069
193 1 1 1.0 -0.026514229532323113 0.04328306252792574 0.10873625030554876
194 1 1 1.0 -0.009710468024286949 -0.0499488672724682 0.10867758494255683
195 1 1 1.0 0.04100073384767959 0.030345842109253705 0.10861891957956489
196 1 1 1.0 -0.050855042688167186 0.005332526382283148 0.10856025421657296
197 1 1 1.0 0.03397929819449958 -0.038377239484592124 0.10850158885358104
198 1 1 1.0 0.0008702759827014167 0.05137484758642279 0.1084429234905891
199 1 1 1.0 -0.0354299695374663 -0.03738408550044522 0.10838425812759717
200 1 1 1.0 0.05150050589772798 0.003641956133040759 0.10832559276460522
201 1 1 1.0 -0.04053123638230315 0.03217905076809542 0.10826692740161328
202 1 1 1.0 0.00816913506086225 -0.05122730969842594 0.10820826203862137
203 1 1 1.0 0.028647207711042576 0.0433935735940135 0.10814959667562943
204 1 1 1.0 -0.05055368259434463 -0.01267579362868214 0.10809093131263749
205 1 1 1.0 0.045945943413382775 -0.0248596017192408 0.10803226594964556
206 1 1 1.0 -0.017126313559413842 0.049481218257217824 0.10797360058665363
207 1 1 1.0 -0.020843649105069355 -0.04816543415830113 0.10791493522366169
208 1 1 1.0 0.048014693634990877 0.021485209956627036 0.10785626986066976
209 1 1 1.0 -0.05003157822313447 0.016628819713515625 0.10779760449767782
210 1 1 1.0 0.025717416826986302 -0.046162056560334175 0.10773893913468588
211 1 1 1.0 0.012246417431013587 0.05152653588742798 0.10768027377169397
212 1 1 1.0 -0.04393438768820449 -0.029788571331746373 0.10762160840870202
213 1 1 1.0 0.052635259286955206 -0.007729344289156855 0.10756294304571008
214 1 1 1.0 -0.03366529445641365 0.04134583690143412 0.10750427768271816
215 1 1 1.0 -0.003111849965397929 -0.053345635088842526 0.10744561231972623
216 1 1 1.0 0.03841353453140698 0.037315465803282384 0.1073869469567343
217 1 1 1.0 -0.05364860457682585 -0.001570731388151606 0.10732828159374236
218 1 1 1.0 0.040708490245881065 -0.03515747794720962 0.10726961623075042
219 1 1 1.0 -0.006282254942724619 0.05353826002837305 0.10721095086775849
220 1 1 1.0 -0.031600394269535655 -0.04381555423722141 0.10715228550476656
221 1 1 1.0 0.05301191645105974 0.010986047474644597 0.10709362014177462
222 1 1 1.0 -0.04660986963478998 0.02776758016341769 0.10703495477878269
223 1 1 1.0 0.015645195906670174 -0.05207015793975361 0.10697628941579075
224 1 1 1.0 0.023686719854927648 0.049066902993958654 0.10691762405279882
225 1 1 1.0 -0.050716858117307695 -0.020222839821326385 0.1068589586898069
226 1 1 1.0 0.051164588387282744 -0.019387682699750792 0.10680029332681495
227 1 1 1.0 -0.024682465613354087 0.0489591743279887 0.10674162796382301
228 1 1 1.0 -0.01490230180447628 -0.052883521929217026 0.10668296260083109
229 1 1 1.0 0.04680751546311869 0.02898819992181005 0.10662429723783916
230 1 1 1.0 -0.05420713632320127 0.0102641353631184 0.10656563187484722
231 1 1 1.0 0.03310509997471024 -0.044275483510707994 0.10650696651185529
232 1 1 1.0 0.005508212520429213 0.055121853899798075 0.10644830114886335
233 1 1 1.0 -0.04137978913349229 -0.036999438490568186 0.10638963578587142
234 1 1 1.0 0.05561721677945417 -0.0006707657086699802 0.10633097042287949
235 1 1 1.0 -0.0406389808117778 0.03814014179100745 0.10627230505988755
236 1 1 1.0 0.004211048475257129 -0.05568599297019919 0.10621363969689562
237 1 1 1.0 0.034579115129570875 0.04399325199418806 0.10615497433390368
238 1 1 1.0 -0.05532425739788298 -0.00909943768161627 0.10609630897091175
239 1 1 1.0 0.04703379164551059 -0.03072198856725389 0.10603764360791983
240 1 1 1.0 -0.013956269250645803 0.05453144706281486 0.10597897824492788
241 1 1 1.0 -0.026596566197965455 -0.04973439439130665 0.10592031288193594
242 1 1 1.0 0.053310389720469746 0.018743370359316003 0.10586164751894403
243 1 1 1.0 -0.05207133395122227 0.022232974327506642 0.10580298215595209
244 1 1 1.0 0.02342283049411526 -0.051667305693581786 0.10574431679296015
245 1 1 1.0 0.017663439133666005 0.05402356892870492 0.10568565142996822
246 1 1 1.0 -0.0496117826368197 -0.02795730384002995 0.10562698606697628
247 1 1 1.0 0.05557292855392191 -0.012922046110481013 0.10556832070398435
248 1 1 1.0 -0.03231030916321357 0.04715672329162138 0.10550965534099242
249 1 1 1.0 -0.008044483112320226 -0.05670427677093885 0.10545098997800048
250 1 1 1.0 0.04431826648592155 0.03644652477160896 0.10539232461500854
251 1 1 1.0 -0.05740565322525286 0.003067768955131405 0.10533365925201663
252 1 1 1.0 0.040332076164025205 -0.0411156818496919 0.10527499388902468
253 1 1 1.0 -0.001970030341149769 0.05766838988524731 0.10521632852603276
254 1 1 1.0 -0.03757123893068356 -0.04393481402375498 0.10515766316304082
255 1 1 1.0 0.0574872022196639 0.007030095474514598 0.10509899780004887
256 1 1 1.0 -0.047224580277465227 0.03371005160378432 0.10504033243705696
257 1 1 1.0 0.012073155659171329 -0.056860254051310656 0.10498166707406502
258 1 1 1.0 0.029559898870280273 0.05017346002337249 0.10492300171107308
259 1 1 1.0 -0.05578919541338724 -0.017059795936745423 0.10486433634808116
260 1 1 1.0 0.05275601723403185 -0.025151023338380492 0.10480567098508922
261 1 1 1.0 -0.021950767580011164 0.05427917294738977 0.10474700562209728
262 1 1 1.0 -0.020515908862026803 -0.054949512257696974 0.10468834025910535
263 1 1 1.0 0.0523388125988802 0.026707299131003746 0.10462967489611341
264 1 1 1.0 -0.056734099277264916 0.015689038989729915 0.10457100953312147
265 1 1 1.0 0.03129140559711898 -0.04998017458774006 0.10451234417012956
266 1 1 1.0 0.010706638037502537 0.05809300203629722 0.10445367880713761
267 1 1 1.0 -0.04721868085112424 -0.03566619333032775 0.10439501344414567
268 1 1 1.0 0.059012666306364335 -0.005606396748537584 0.10433634808115376
269 1 1 1.0 -0.039796158135989405 0.04407301537841152 0.10427768271816182
270 1 1 1.0 -0.00042718463585552204 -0.05948288774773537 0.10421901735516988
271 1 1 1.0 0.04056499807624229 0.04364747419885886 0.10416035199217795
272 1 1 1.0 -0.05949691400486294 -0.004791248778418455 0.10410168662918601
273 1 1 1.0 0.04718827147450035 -0.036719433016471584 0.10404302126619408
274 1 1 1.0 -0.010008581513201739 0.059051520077723504 0.10398435590320215
275 1 1 1.0 -0.03256393212881437 -0.050388899274050734 0.10392569054021021
276 1 1 1.0 0.058147056218312565 0.015184233071824902 0.10386702517721828
277 1 1 1.0 -0.053222173868556176 0.02812871560141503 0.10380835981422636
278 1 1 1.0 0.020277682318935893 -0.05678746781683272 0.10374969445123441
279 1 1 1.0 0.023446390444892305 0.05566360805523581 0.10369102908824249
280 1 1 1.0 -0.05498028696265687 -0.025248786787116655 0.10363236372525055
281 1 1 1.0 0.05769162076115068 -0.018551708857014626 0.1035736983622586
282 1 1 1.0 -0.0300581008850533 0.05273659558925556 0.10351503299926668
283 1 1 1.0 -0.013481308194554639 -0.05928772490888309 0.10345636763627475
284 1 1 1.0 0.05007096033817688 0.034667190474832 0.10339770227328281
285 1 1 1.0 -0.06043669193285095 0.008273434514589863 0.10333903691029088
286 1 1 1.0 0.03903894130190476 -0.047001339503021766 0.10328037154729895
287 1 1 1.0 0.0029676517884947777 0.0611266915124877 0.10322170618430701
288 1 1 1.0 -0.04354896263850181 -0.043137858797233454 0.10316304082131508
289 1 1 1.0 0.06134940527849458 0.002395460983642596 0.10310437545832314
290 1 1 1.0 -0.04693035682736438 0.03973818363998547 0.10304571009533121
291 1 1 1.0 0.007774622422674877 -0.06110011344902715 0.10298704473233927
292 1 1 1.0 0.03559630831412306 0.050385033043609334 0.10292837936934734
293 1 1 1.0 -0.060377753562692316 -0.013128168759329628 0.10286971400635542
294 1 1 1.0 0.053472928576333664 -0.031153397668990564 0.10281104864336348
295 1 1 1.0 -0.018414378667067823 0.059184950692802454 0.10275238328037155
296 1 1 1.0 -0.026442048351319945 -0.05616776993340683 0.10269371791737962
297 1 1 1.0 0.05752801875083422 0.023591800392546245 0.10263505255438768
298 1 1 1.0 -0.0584461910925454 0.021497151847036104 0.10257638719139574
299 1 1 1.0 0.02861957860643119 -0.0554169327146886 0.10251772182840381
300 1 1 1.0 0.016355634237978728 0.06028793392455077 0.10245905646541187
301 1 1 1.0 -0.052865271847354525 -0.03345777838674792 0.10240039110241994
302 1 1 1.0 0.061676025247218144 -0.011056178470891619 0.10234172573942801
303 1 1 1.0 -0.03806770375692741 0.049890134202116014 0.10228306037643607
304 1 1 1.0 -0.005638931243152028 -0.06259692898673494 0.10222439501344414
305 1 1 1.0 0.04651202293967706 0.0424122082312353 0.10216572965045222
306 1 1 1.0 -0.06304067211334721 0.0001451967420459559 0.10210706428746028
307 1 1 1.0 0.04645599487118254 -0.042754705208681174 0.10204839892446833
308 1 1 1.0 -0.005382880410449449 0.06300094321949357 0.1019897335614764
309 1 1 1.0 -0.03864504456225446 -0.05016590342750019 0.10193106819848446
310 1 1 1.0 0.06247516281993076 0.010902640558427615 0.10187240283549255
311 1 1 1.0 -0.053511182232833805 0.03421280809762883 0.10181373747250061
312 1 1 1.0 0.016371240231435973 -0.061464524672963206 0.10175507210950867
313 1 1 1.0 0.029490449711864757 0.05646374261983523 0.10169640674651675
314 1 1 1.0 -0.05997400764802882 -0.021745986597299004 0.10163774138352481
315 1 1 1.0 0.05899839376700866 -0.024512871062521306 0.10157907602053287
316 1 1 1.0 -0.026984672525198265 0.05801235789581437 0.10152041065754094
317 1 1 1.0 -0.01931716200621557 -0.061093056019564815 0.101461745294549
318 1 1 1.0 0.055592041310956436 0.03204590961847021 0.10140307993155706
319 1 1 1.0 -0.06272895089357026 0.01394232245886071 0.10134441456856515
320 1 1 1.0 0.03688945658009463 -0.05272916651238703 0.1012857492055732
321 1 1 1.0 0.008428967777561523 0.06389076614763554 0.10122708384258126
322 1 1 1.0 -0.04944337880063979 -0.041476540298283404 0.10116841847958935
323 1 1 1.0 0.06456679449592839 -0.0028190199043766667 0.10110975311659741
324 1 1 1.0 -0.04577016708483316 0.04575772578308039 0.10105108775360547
325 1 1 1.0 0.0028446133647504037 -0.06474904473798036 0.10099242239061354
326 1 1 1.0 0.04169849558521681 0.049735421564702766 0.1009337570276216
327 1 1 1.0 -0.06443332429302032 -0.008518368517682225 0.10087509166462967
328 1 1 1.0 0.053339750801177546 -0.03729502878715505 0.10081642630163774
329 1 1 1.0 -0.014158363316373428 0.06361929234777977 0.1007577609386458
330 1 1 1.0 -0.03257950543711968 -0.05655323134638742 0.10069909557565387
331 1 1 1.0 0.06231048305515182 0.01972073801975869 0.10064043021266195
332 1 1 1.0 -0.05934881703109809 0.027586708697032475 0.10058176484967
333 1 1 1.0 0.025161998173734407 -0.06051429845496359 0.10052309948667808
334 1 1 1.0 0.022353766866796215 0.0617025654496833 0.10046443412368614
335 1 1 1.0 -0.05824197102561733 -0.030439356278100824 0.1004057687606942
336 1 1 1.0 0.06359384125497752 -0.016919875712533103 0.10034710339770227
337 1 1 1.0 -0.035511069636934206 0.05550849601456405 0.10028843803471034
338 1 1 1.0 -0.011326003188364683 -0.06500549455202079 0.1002297726717184
339 1 1 1.0 0.05233253393472973 0.04033677171656115 0.10017110730872647
340 1 1 1.0 -0.06592401286844579 0.005614578789448436 0.10011244194573454
341 1 1 1.0 0.04487779437461625 -0.048736283850949164 0.1000537765827426
342 1 1 1.0 -0.00017083009446071777 0.06633964538063586 0.09999511121975067
343 1 1 1.0 -0.04474532831369347 -0.04909747838350673 0.09993644585675873
344 1 1 1.0 0.06624649828761442 0.005985852342652343 0.09987778049376679
345 1 1 1.0 -0.052961469752441544 0.04038845102464729 0.09981911513077486
346 1 1 1.0 0.011785655207972975 -0.0656426004470301 0.09976044976778294
347 1 1 1.0 0.03569742853843908 0.05643799945288288 0.09970178440479101
348 1 1 1.0 -0.06452993861795786 -0.017525291711821815 0.09964311904179907
349 1 1 1.0 0.05949814427236944 -0.030706797515172822 0.09958445367880714
350 1 1 1.0 -0.023160050625797724 0.06291446189173065 0.09952578831581521
351 1 1 1.0 -0.02545359923768022 -0.06211606666020878 0.09946712295282327
352 1 1 1.0 0.06080605513280319 0.028645806303841434 0.09940845758983133
353 1 1 1.0 -0.0642692315845247 0.019977103293985672 0.0993497922268394
354 1 1 1.0 0.03393936561785068 -0.05821848149484151 0.09929112686384746
355 1 1 1.0 0.014318512497828086 0.06593859859240842 0.09923246150085553
356 1 1 1.0 -0.055169294320917585 -0.03899880926050743 0.0991737961378636
357 1 1 1.0 0.06710878745216098 -0.008520651276796071 0.09911513077487166
358 1 1 1.0 -0.04378382471144468 0.05167971897894335 0.09905646541187973
359 1 1 1.0 -0.002627639897407686 -0.06776821595740869 0.09899780004888781
360 1 1 1.0 0.047774505422381625 0.04825602821672112 0.09893913468589587
361 1 1 1.0 -0.06790920868568745 -0.003315442981866497 0.09888046932290392
362 1 1 1.0 0.05237927320652628 -0.043481752499925745 0.098821803959912
363 1 1 1.0 -0.009262906836108989 0.06752807572729377 0.09876313859692006
364 1 1 1.0 -0.03883270526437761 -0.05611994267159174 0.09870447323392813
365 1 1 1.0 0.06662516063206433 0.015168802201952703 0.0986458078709362
366 1 1 1.0 -0.05944722313426255 0.03386152674856062 0.09858714250794426
367 1 1 1.0 0.020987277270272605 -0.0652048570604775 0.09852847714495234
368 1 1 1.0 0.028605045883028143 0.0623333579847512 0.0984698117819604
369 1 1 1.0 -0.06327559386921115 -0.02667293536532856 0.09841114641896846
370 1 1 1.0 0.06475387810576412 -0.023102483424896528 0.09835248105597653
371 1 1 1.0 -0.03218119051338507 0.06084978860813561 0.09829381569298459
372 1 1 1.0 -0.017395157947761832 -0.06668780787832332 0.09823515032999265
373 1 1 1.0 0.057943769653735176 0.0374686183070467 0.09817648496700074
374 1 1 1.0 -0.06811784484692779 0.01152617410787548 0.0981178196040088
375 1 1 1.0 0.042493299296763286 -0.054577667451185204 0.09805915424101685
376 1 1 1.0 0.005540095550194085 0.06903051152181061 0.09800048887802494
377 1 1 1.0 -0.050775275581808825 -0.0472151521880582 0.097941823515033
378 1 1 1.0 0.06941627800842567 0.0005173950516494487 0.09788315815204106
379 1 1 1.0 -0.05159625419173071 0.04656388261246676 0.09782449278904913
380 1 1 1.0 0.006599846216077887 -0.06926965437781918 0.09776582742605719
381 1 1 1.0 0.04197407591668066 0.055601145964113266 0.09770716206306525
382 1 1 1.0 -0.0685892519244838 -0.012660395438352717 0.09764849670007333
383 1 1 1.0 0.05919711868480246 -0.03703951888209966 0.09758983133708139
384 1 1 1.0 -0.01865213177232476 0.06737781269885841 0.09753116597408946
385 1 1 1.0 -0.03179670313349183 -0.06235448094932857 0.09747250061109754
386 1 1 1.0 0.06564220694795947 0.02452846039310664 0.0974138352481056
387 1 1 1.0 -0.06504680330306478 0.02628467760298874 0.09735516988511367
388 1 1 1.0 0.030243466297660608 -0.06339339834776972 0.09729650452212173
389 1 1 1.0 0.020544756468444184 0.06725113840906728 0.09723783915912979
390 1 1 1.0 -0.06064637716310458 -0.035752274295357794 0.09717917379613786
391 1 1 1.0 0.06894821502555552 -0.014620208154366016 0.09712050843314593
392 1 1 1.0 -0.04101140245840405 0.057420061722533944 0.09706184307015399
393 1 1 1.0 -0.00855592774739074 -0.07012260416651799 0.09700317770716206
394 1 1 1.0 0.053737168845890436 0.04597910624163225 0.09694451234417013
395 1 1 1.0 -0.07076285603046108 0.0023980953175307424 0.09688584698117819
396 1 1 1.0 0.05061571054325464 -0.04962405410766267 0.09682718161818626
397 1 1 1.0 -0.0038061772431540624 0.07086160650565218 0.09676851625519432
398 1 1 1.0 -0.04511052305940736 -0.05488392706170593 0.09670985089220238
399 1 1 1.0 0.07041565229377897 0.01000920815248443 0.09665118552921045
400 1 1 1.0 -0.058749154408382034 0.04022961476622357 0.09659252016621853
401 1 1 1.0 0.01616311364928797 -0.06942599393591543 0.0965338548032266
402 1 1 1.0 0.03501735923448682 0.062179758561076236 0.09647518944023466
403 1 1 1.0 -0.06789784627318637 -0.022220179034499764 0.09641652407724273
404 1 1 1.0 0.06514733138733067 -0.02951251051865638 0.0963578587142508
405 1 1 1.0 -0.02813322995732758 0.06584061612762282 0.09629919335125886