ITEM: TIMESTEP
500
ITEM: NUMBER OF ATOMS
144
ITEM: BOX BOUNDS pp pp pp
-1.0000000000000000e+01 1.0000000000000000e+01
-1.0000000000000000e+01 1.0000000000000000e+01
-5.0000000000000000e-01 5.0000000000000000e-01
ITEM: ATOMS id type mol x y vx vy fx fy
129 1 4 -1.02107 -7.4932 0 0 0 0
130 1 4 -0.85505 -7.84923 0 0 0 0
131 1 4 -0.499019 -7.68321 0 0 0 0
132 1 4 -0.142988 -7.51719 0 0 0 0
133 1 4 0.213044 -7.35117 0 0 0 0
127 1 4 -1.35311 -6.78114 0 0 0 0
128 1 4 -1.18709 -7.13717 0 0 0 0
134 1 4 0.569075 -7.18515 0 0 0 0
135 1 4 0.925106 -7.01913 0 0 0 0
136 1 4 1.28114 -6.85311 0 0 0 0
137 1 4 1.63717 -6.68709 0 0 0 0
125 1 4 -1.68515 -6.06907 0 0 0 0
126 1 4 -1.51913 -6.42511 0 0 0 0
138 1 4 1.9932 -6.52107 0 0 0 0
139 1 4 2.34923 -6.35505 0 0 0 0
123 1 4 -2.01719 -5.35701 0 0 0 0
124 1 4 -1.85117 -5.71304 0 0 0 0
140 1 4 2.18321 -5.99902 0 0 0 0
141 1 4 2.01719 -5.64299 0 0 0 0
122 1 4 -2.18321 -5.00098 0 0 0 0
142 1 4 1.85117 -5.28696 0 0 0 0
143 1 4 1.68515 -4.93093 0 0 0 0
121 1 4 -2.34923 -4.64495 0 0 0 0
155 1 4 -1.63717 -4.31291 0 0 0 0
156 1 4 -1.9932 -4.47893 0 0 0 0
154 1 4 -1.28114 -4.14689 0 0 0 0
144 1 4 1.51913 -4.57489 0 0 0 0
145 1 4 1.35311 -4.21886 0 0 0 0
153 1 4 -0.925106 -3.98087 0 0 0 0
151 1 4 -0.213044 -3.64883 0 0 0 0
152 1 4 -0.569075 -3.81485 0 0 0 0
150 1 4 0.142988 -3.48281 0 0 0 0
146 1 4 1.18709 -3.86283 0 0 0 0
147 1 4 1.02107 -3.5068 0 0 0 0
149 1 4 0.499019 -3.31679 0 0 0 0
148 1 4 0.85505 -3.15077 0 0 0 0
1 1 1 -1.35505 -2.34923 0.1 0 0 0
2 1 1 -0.999019 -2.18321 0.1 0 0 0
3 1 1 -0.642988 -2.01719 0.1 0 0 0
35 1 1 -1.68709 -1.63717 0.1 0 0 0
36 1 1 -1.52107 -1.9932 0.1 0 0 0
4 1 1 -0.286956 -1.85117 0.1 0 0 0
5 1 1 0.0690749 -1.68515 0.1 0 0 0
6 1 1 0.425106 -1.51913 0.1 0 0 0
7 1 1 0.781138 -1.35311 0.1 0 0 0
41 1 2 4.73223 -1.76777 0 0 0 0
42 1 2 5.12507 -1.76777 0 0 0 0
76 1 2 4.73223 -1.37493 0 0 0 0
43 1 2 5.51791 -1.76777 0 0 0 0
44 1 2 5.91074 -1.76777 0 0 0 0
45 1 2 6.30358 -1.76777 0 0 0 0
46 1 2 6.69642 -1.76777 0 0 0 0
47 1 2 7.08926 -1.76777 0 0 0 0
48 1 2 7.48209 -1.76777 0 0 0 0
49 1 2 7.87493 -1.76777 0 0 0 0
50 1 2 8.26777 -1.76777 0 0 0 0
51 1 2 8.26777 -1.37493 0 0 0 0
33 1 1 -2.01913 -0.925106 0.1 0 0 0
34 1 1 -1.85311 -1.28114 0.1 0 0 0
8 1 1 1.13717 -1.18709 0.1 0 0 0
9 1 1 1.4932 -1.02107 0.1 0 0 0
10 1 1 1.84923 -0.85505 0.1 0 0 0
75 1 2 4.73223 -0.982093 0 0 0 0
52 1 2 8.26777 -0.982093 0 0 0 0
31 1 1 -2.35117 -0.213044 0.1 0 0 0
32 1 1 -2.18515 -0.569075 0.1 0 0 0
12 1 1 1.51719 -0.142988 0.1 0 0 0
11 1 1 1.68321 -0.499019 0.1 0 0 0
73 1 2 4.73223 -0.196419 0 0 0 0
74 1 2 4.73223 -0.589256 0 0 0 0
53 1 2 8.26777 -0.589256 0 0 0 0
54 1 2 8.26777 -0.196419 0 0 0 0
29 1 1 -2.68321 0.499019 0.1 0 0 0
30 1 1 -2.51719 0.142988 0.1 0 0 0
14 1 1 1.18515 0.569075 0.1 0 0 0
13 1 1 1.35117 0.213044 0.1 0 0 0
71 1 2 4.73223 0.589256 0 0 0 0
72 1 2 4.73223 0.196419 0 0 0 0
55 1 2 8.26777 0.196419 0 0 0 0
56 1 2 8.26777 0.589256 0 0 0 0
28 1 1 -2.84923 0.85505 0.1 0 0 0
27 1 1 -2.4932 1.02107 0.1 0 0 0
26 1 1 -2.13717 1.18709 0.1 0 0 0
16 1 1 0.853111 1.28114 0.1 0 0 0
15 1 1 1.01913 0.925106 0.1 0 0 0
70 1 2 4.73223 0.982093 0 0 0 0
57 1 2 8.26777 0.982093 0 0 0 0
25 1 1 -1.78114 1.35311 0.1 0 0 0
24 1 1 -1.42511 1.51913 0.1 0 0 0
23 1 1 -1.06907 1.68515 0.1 0 0 0
22 1 1 -0.713044 1.85117 0.1 0 0 0
18 1 1 0.52107 1.9932 0.1 0 0 0
17 1 1 0.687091 1.63717 0.1 0 0 0
67 1 2 5.12507 1.76777 0 0 0 0
68 1 2 4.73223 1.76777 0 0 0 0
69 1 2 4.73223 1.37493 0 0 0 0
65 1 2 5.91074 1.76777 0 0 0 0
66 1 2 5.51791 1.76777 0 0 0 0
64 1 2 6.30358 1.76777 0 0 0 0
62 1 2 7.08926 1.76777 0 0 0 0
63 1 2 6.69642 1.76777 0 0 0 0
60 1 2 7.87493 1.76777 0 0 0 0
61 1 2 7.48209 1.76777 0 0 0 0
58 1 2 8.26777 1.37493 0 0 0 0
59 1 2 8.26777 1.76777 0 0 0 0
21 1 1 -0.357012 2.01719 0.1 0 0 0
20 1 1 -0.000980965 2.18321 0.1 0 0 0
19 1 1 0.35505 2.34923 0.1 0 0 0
81 1 3 0.732233 6.23223 0.05 0.05 0 0
82 1 3 1.12507 6.23223 0.05 0.05 0 0
116 1 3 0.732233 6.62507 0.05 0.05 0 0
83 1 3 1.51791 6.23223 0.05 0.05 0 0
84 1 3 1.91074 6.23223 0.05 0.05 0 0
85 1 3 2.30358 6.23223 0.05 0.05 0 0
86 1 3 2.69642 6.23223 0.05 0.05 0 0
87 1 3 3.08926 6.23223 0.05 0.05 0 0
88 1 3 3.48209 6.23223 0.05 0.05 0 0
89 1 3 3.87493 6.23223 0.05 0.05 0 0
90 1 3 4.26777 6.23223 0.05 0.05 0 0
91 1 3 4.26777 6.62507 0.05 0.05 0 0
115 1 3 0.732233 7.01791 0.05 0.05 0 0
92 1 3 4.26777 7.01791 0.05 0.05 0 0
113 1 3 0.732233 7.80358 0.05 0.05 0 0
114 1 3 0.732233 7.41074 0.05 0.05 0 0
93 1 3 4.26777 7.41074 0.05 0.05 0 0
94 1 3 4.26777 7.80358 0.05 0.05 0 0
112 1 3 0.732233 8.19642 0.05 0.05 0 0
111 1 3 0.732233 8.58926 0.05 0.05 0 0
95 1 3 4.26777 8.19642 0.05 0.05 0 0
96 1 3 4.26777 8.58926 0.05 0.05 0 0
110 1 3 0.732233 8.98209 0.05 0.05 0 0
97 1 3 4.26777 8.98209 0.05 0.05 0 0
107 1 3 1.12507 9.76777 0.05 0.05 0 0
108 1 3 0.732233 9.76777 0.05 0.05 0 0
109 1 3 0.732233 9.37493 0.05 0.05 0 0
106 1 3 1.51791 9.76777 0.05 0.05 0 0
105 1 3 1.91074 9.76777 0.05 0.05 0 0
104 1 3 2.30358 9.76777 0.05 0.05 0 0
102 1 3 3.08926 9.76777 0.05 0.05 0 0
103 1 3 2.69642 9.76777 0.05 0.05 0 0
101 1 3 3.48209 9.76777 0.05 0.05 0 0
100 1 3 3.87493 9.76777 0.05 0.05 0 0
98 1 3 4.26777 9.37493 0.05 0.05 0 0
99 1 3 4.26777 9.76777 0.05 0.05 0 0
ITEM: TIMESTEP
600
ITEM: NUMBER OF ATOMS
144
ITEM: BOX BOUNDS pp pp pp
-1.0000000000000000e+01 1.0000000000000000e+01
-1.0000000000000000e+01 1.0000000000000000e+01
-5.0000000000000000e-01 5.0000000000000000e-01
ITEM: ATOMS id type mol x y vx vy fx fy
129 1 4 -1.02107 -7.4932 0 0 0 0
130 1 4 -0.85505 -7.84923 0 0 0 0
131 1 4 -0.499019 -7.68321 0 0 0 0
132 1 4 -0.142988 -7.51719 0 0 0 0
133 1 4 0.213044 -7.35117 0 0 0 0
127 1 4 -1.35311 -6.78114 0 0 0 0
128 1 4 -1.18709 -7.13717 0 0 0 0
134 1 4 0.569075 -7.18515 0 0 0 0
135 1 4 0.925106 -7.01913 0 0 0 0
136 1 4 1.28114 -6.85311 0 0 0 0
137 1 4 1.63717 -6.68709 0 0 0 0
125 1 4 -1.68515 -6.06907 0 0 0 0
126 1 4 -1.51913 -6.42511 0 0 0 0
138 1 4 1.9932 -6.52107 0 0 0 0
139 1 4 2.34923 -6.35505 0 0 0 0
123 1 4 -2.01719 -5.35701 0 0 0 0
124 1 4 -1.85117 -5.71304 0 0 0 0
140 1 4 2.18321 -5.99902 0 0 0 0
141 1 4 2.01719 -5.64299 0 0 0 0
122 1 4 -2.18321 -5.00098 0 0 0 0
142 1 4 1.85117 -5.28696 0 0 0 0
143 1 4 1.68515 -4.93093 0 0 0 0
121 1 4 -2.34923 -4.64495 0 0 0 0
155 1 4 -1.63717 -4.31291 0 0 0 0
156 1 4 -1.9932 -4.47893 0 0 0 0
154 1 4 -1.28114 -4.14689 0 0 0 0
144 1 4 1.51913 -4.57489 0 0 0 0
145 1 4 1.35311 -4.21886 0 0 0 0
153 1 4 -0.925106 -3.98087 0 0 0 0
151 1 4 -0.213044 -3.64883 0 0 0 0
152 1 4 -0.569075 -3.81485 0 0 0 0
150 1 4 0.142988 -3.48281 0 0 0 0
146 1 4 1.18709 -3.86283 0 0 0 0
147 1 4 1.02107 -3.5068 0 0 0 0
149 1 4 0.499019 -3.31679 0 0 0 0
148 1 4 0.85505 -3.15077 0 0 0 0
1 1 1 -0.35505 -2.34923 0.1 0 0 0
2 1 1 0.000980965 -2.18321 0.1 0 0 0
3 1 1 0.357012 -2.01719 0.1 0 0 0
35 1 1 -0.687091 -1.63717 0.1 0 0 0
36 1 1 -0.52107 -1.9932 0.1 0 0 0
4 1 1 0.713044 -1.85117 0.1 0 0 0
5 1 1 1.06907 -1.68515 0.1 0 0 0
6 1 1 1.42511 -1.51913 0.1 0 0 0
7 1 1 1.78114 -1.35311 0.1 0 0 0
41 1 2 4.73223 -1.76777 0 0 0 0
42 1 2 5.12507 -1.76777 0 0 0 0
76 1 2 4.73223 -1.37493 0 0 0 0
43 1 2 5.51791 -1.76777 0 0 0 0
44 1 2 5.91074 -1.76777 0 0 0 0
45 1 2 6.30358 -1.76777 0 0 0 0
46 1 2 6.69642 -1.76777 0 0 0 0
47 1 2 7.08926 -1.76777 0 0 0 0
48 1 2 7.48209 -1.76777 0 0 0 0
49 1 2 7.87493 -1.76777 0 0 0 0
50 1 2 8.26777 -1.76777 0 0 0 0
51 1 2 8.26777 -1.37493 0 0 0 0
33 1 1 -1.01913 -0.925106 0.1 0 0 0
34 1 1 -0.853111 -1.28114 0.1 0 0 0
8 1 1 2.13717 -1.18709 0.1 0 0 0
9 1 1 2.4932 -1.02107 0.1 0 0 0
10 1 1 2.84923 -0.85505 0.1 0 0 0
75 1 2 4.73223 -0.982093 0 0 0 0
52 1 2 8.26777 -0.982093 0 0 0 0
31 1 1 -1.35117 -0.213044 0.1 0 0 0
32 1 1 -1.18515 -0.569075 0.1 0 0 0
12 1 1 2.51719 -0.142988 0.1 0 0 0
11 1 1 2.68321 -0.499019 0.1 0 0 0
73 1 2 4.73223 -0.196419 0 0 0 0
74 1 2 4.73223 -0.589256 0 0 0 0
53 1 2 8.26777 -0.589256 0 0 0 0
54 1 2 8.26777 -0.196419 0 0 0 0
29 1 1 -1.68321 0.499019 0.1 0 0 0
30 1 1 -1.51719 0.142988 0.1 0 0 0
14 1 1 2.18515 0.569075 0.1 0 0 0
13 1 1 2.35117 0.213044 0.1 0 0 0
71 1 2 4.73223 0.589256 0 0 0 0
72 1 2 4.73223 0.196419 0 0 0 0
55 1 2 8.26777 0.196419 0 0 0 0
56 1 2 8.26777 0.589256 0 0 0 0
28 1 1 -1.84923 0.85505 0.1 0 0 0
27 1 1 -1.4932 1.02107 0.1 0 0 0
26 1 1 -1.13717 1.18709 0.1 0 0 0
16 1 1 1.85311 1.28114 0.1 0 0 0
15 1 1 2.01913 0.925106 0.1 0 0 0
70 1 2 4.73223 0.982093 0 0 0 0
57 1 2 8.26777 0.982093 0 0 0 0
25 1 1 -0.781138 1.35311 0.1 0 0 0
24 1 1 -0.425106 1.51913 0.1 0 0 0
23 1 1 -0.0690749 1.68515 0.1 0 0 0
22 1 1 0.286956 1.85117 0.1 0 0 0
18 1 1 1.52107 1.9932 0.1 0 0 0
17 1 1 1.68709 1.63717 0.1 0 0 0
67 1 2 5.12507 1.76777 0 0 0 0
68 1 2 4.73223 1.76777 0 0 0 0
69 1 2 4.73223 1.37493 0 0 0 0
65 1 2 5.91074 1.76777 0 0 0 0
66 1 2 5.51791 1.76777 0 0 0 0
64 1 2 6.30358 1.76777 0 0 0 0
62 1 2 7.08926 1.76777 0 0 0 0
63 1 2 6.69642 1.76777 0 0 0 0
60 1 2 7.87493 1.76777 0 0 0 0
61 1 2 7.48209 1.76777 0 0 0 0
58 1 2 8.26777 1.37493 0 0 0 0
59 1 2 8.26777 1.76777 0 0 0 0
21 1 1 0.642988 2.01719 0.1 0 0 0
20 1 1 0.999019 2.18321 0.1 0 0 0
19 1 1 1.35505 2.34923 0.1 0 0 0
81 1 3 1.23223 6.73223 0.05 0.05 0 0
82 1 3 1.62507 6.73223 0.05 0.05 0 0
116 1 3 1.23223 7.12507 0.05 0.05 0 0
83 1 3 2.01791 6.73223 0.05 0.05 0 0
84 1 3 2.41074 6.73223 0.05 0.05 0 0
85 1 3 2.80358 6.73223 0.05 0.05 0 0
86 1 3 3.19642 6.73223 0.05 0.05 0 0
87 1 3 3.58926 6.73223 0.05 0.05 0 0
88 1 3 3.98209 6.73223 0.05 0.05 0 0
89 1 3 4.37493 6.73223 0.05 0.05 0 0
90 1 3 4.76777 6.73223 0.05 0.05 0 0
91 1 3 4.76777 7.12507 0.05 0.05 0 0
115 1 3 1.23223 7.51791 0.05 0.05 0 0
92 1 3 4.76777 7.51791 0.05 0.05 0 0
113 1 3 1.23223 8.30358 0.05 0.05 0 0
114 1 3 1.23223 7.91074 0.05 0.05 0 0
93 1 3 4.76777 7.91074 0.05 0.05 0 0
94 1 3 4.76777 8.30358 0.05 0.05 0 0
112 1 3 1.23223 8.69642 0.05 0.05 0 0
111 1 3 1.23223 9.08926 0.05 0.05 0 0
95 1 3 4.76777 8.69642 0.05 0.05 0 0
96 1 3 4.76777 9.08926 0.05 0.05 0 0
110 1 3 1.23223 9.48209 0.05 0.05 0 0
97 1 3 4.76777 9.48209 0.05 0.05 0 0
107 1 3 1.62507 -9.73223 0.05 0.05 0 0
108 1 3 1.23223 -9.73223 0.05 0.05 0 0
109 1 3 1.23223 9.87493 0.05 0.05 0 0
106 1 3 2.01791 -9.73223 0.05 0.05 0 0
105 1 3 2.41074 -9.73223 0.05 0.05 0 0
104 1 3 2.80358 -9.73223 0.05 0.05 0 0
102 1 3 3.58926 -9.73223 0.05 0.05 0 0
103 1 3 3.19642 -9.73223 0.05 0.05 0 0
101 1 3 3.98209 -9.73223 0.05 0.05 0 0
100 1 3 4.37493 -9.73223 0.05 0.05 0 0
98 1 3 4.76777 9.87493 0.05 0.05 0 0
99 1 3 4.76777 -9.73223 0.05 0.05 0 0
ITEM: TIMESTEP
700
ITEM: NUMBER OF ATOMS
144
ITEM: BOX BOUNDS pp pp pp
-1.0000000000000000e+01 1.0000000000000000e+01
-1.0000000000000000e+01 1.0000000000000000e+01
-5.0000000000000000e-01 5.0000000000000000e-01
ITEM: ATOMS id type mol x y vx vy fx fy
129 1 4 -1.02107 -7.4932 0 0 0 0
130 1 4 -0.85505 -7.84923 0 0 0 0
131 1 4 -0.499019 -7.68321 0 0 0 0
132 1 4 -0.142988 -7.51719 0 0 0 0
133 1 4 0.213044 -7.35117 0 0 0 0
127 1 4 -1.35311 -6.78114 0 0 0 0
128 1 4 -1.18709 -7.13717 0 0 0 0
134 1 4 0.569075 -7.18515 0 0 0 0
135 1 4 0.925106 -7.01913 0 0 0 0
136 1 4 1.28114 -6.85311 0 0 0 0
137 1 4 1.63717 -6.68709 0 0 0 0
125 1 4 -1.68515 -6.06907 0 0 0 0
126 1 4 -1.51913 -6.42511 0 0 0 0
138 1 4 1.9932 -6.52107 0 0 0 0
139 1 4 2.34923 -6.35505 0 0 0 0
123 1 4 -2.01719 -5.35701 0 0 0 0
124 1 4 -1.85117 -5.71304 0 0 0 0
140 1 4 2.18321 -5.99902 0 0 0 0
141 1 4 2.01719 -5.64299 0 0 0 0
122 1 4 -2.18321 -5.00098 0 0 0 0
142 1 4 1.85117 -5.28696 0 0 0 0
143 1 4 1.68515 -4.93093 0 0 0 0
121 1 4 -2.34923 -4.64495 0 0 0 0
155 1 4 -1.63717 -4.31291 0 0 0 0
156 1 4 -1.9932 -4.47893 0 0 0 0
154 1 4 -1.28114 -4.14689 0 0 0 0
144 1 4 1.51913 -4.57489 0 0 0 0
145 1 4 1.35311 -4.21886 0 0 0 0
153 1 4 -0.925106 -3.98087 0 0 0 0
151 1 4 -0.213044 -3.64883 0 0 0 0
152 1 4 -0.569075 -3.81485 0 0 0 0
150 1 4 0.142988 -3.48281 0 0 0 0
146 1 4 1.18709 -3.86283 0 0 0 0
147 1 4 1.02107 -3.5068 0 0 0 0
149 1 4 0.499019 -3.31679 0 0 0 0
148 1 4 0.85505 -3.15077 0 0 0 0
1 1 1 0.64495 -2.34923 0.1 0 0 0
2 1 1 1.00098 -2.18321 0.1 0 0 0
3 1 1 1.35701 -2.01719 0.1 0 0 0
35 1 1 0.312909 -1.63717 0.1 0 0 0
36 1 1 0.47893 -1.9932 0.1 0 0 0
4 1 1 1.71304 -1.85117 0.1 0 0 0
5 1 1 2.06907 -1.68515 0.1 0 0 0
6 1 1 2.42511 -1.51913 0.1 0 0 0
7 1 1 2.78114 -1.35311 0.1 0 0 0
41 1 2 4.73223 -1.76777 0 0 0 0
42 1 2 5.12507 -1.76777 0 0 0 0
76 1 2 4.73223 -1.37493 0 0 0 0
43 1 2 5.51791 -1.76777 0 0 0 0
44 1 2 5.91074 -1.76777 0 0 0 0
45 1 2 6.30358 -1.76777 0 0 0 0
46 1 2 6.69642 -1.76777 0 0 0 0
47 1 2 7.08926 -1.76777 0 0 0 0
48 1 2 7.48209 -1.76777 0 0 0 0
49 1 2 7.87493 -1.76777 0 0 0 0
50 1 2 8.26777 -1.76777 0 0 0 0
51 1 2 8.26777 -1.37493 0 0 0 0
33 1 1 -0.0191309 -0.925106 0.1 0 0 0
34 1 1 0.146889 -1.28114 0.1 0 0 0
8 1 1 3.13717 -1.18709 0.1 0 0 0
9 1 1 3.4932 -1.02107 0.1 0 0 0
10 1 1 3.84923 -0.85505 0.1 0 0 0
75 1 2 4.73223 -0.982093 0 0 0 0
52 1 2 8.26777 -0.982093 0 0 0 0
31 1 1 -0.351171 -0.213044 0.1 0 0 0
32 1 1 -0.185151 -0.569075 0.1 0 0 0
12 1 1 3.51719 -0.142988 0.1 0 0 0
11 1 1 3.68321 -0.499019 0.1 0 0 0
73 1 2 4.73223 -0.196419 0 0 0 0
74 1 2 4.73223 -0.589256 0 0 0 0
53 1 2 8.26777 -0.589256 0 0 0 0
54 1 2 8.26777 -0.196419 0 0 0 0
29 1 1 -0.683211 0.499019 0.1 0 0 0
30 1 1 -0.517191 0.142988 0.1 0 0 0
14 1 1 3.18515 0.569075 0.1 0 0 0
13 1 1 3.35117 0.213044 0.1 0 0 0
71 1 2 4.73223 0.589256 0 0 0 0
72 1 2 4.73223 0.196419 0 0 0 0
55 1 2 8.26777 0.196419 0 0 0 0
56 1 2 8.26777 0.589256 0 0 0 0
28 1 1 -0.849232 0.85505 0.1 0 0 0
27 1 1 -0.4932 1.02107 0.1 0 0 0
26 1 1 -0.137169 1.18709 0.1 0 0 0
16 1 1 2.85311 1.28114 0.1 0 0 0
15 1 1 3.01913 0.925106 0.1 0 0 0
70 1 2 4.73223 0.982093 0 0 0 0
57 1 2 8.26777 0.982093 0 0 0 0
25 1 1 0.218862 1.35311 0.1 0 0 0
24 1 1 0.574894 1.51913 0.1 0 0 0
23 1 1 0.930925 1.68515 0.1 0 0 0
22 1 1 1.28696 1.85117 0.1 0 0 0
18 1 1 2.52107 1.9932 0.1 0 0 0
17 1 1 2.68709 1.63717 0.1 0 0 0
67 1 2 5.12507 1.76777 0 0 0 0
68 1 2 4.73223 1.76777 0 0 0 0
69 1 2 4.73223 1.37493 0 0 0 0
65 1 2 5.91074 1.76777 0 0 0 0
66 1 2 5.51791 1.76777 0 0 0 0
64 1 2 6.30358 1.76777 0 0 0 0
62 1 2 7.08926 1.76777 0 0 0 0
63 1 2 6.69642 1.76777 0 0 0 0
60 1 2 7.87493 1.76777 0 0 0 0
61 1 2 7.48209 1.76777 0 0 0 0
58 1 2 8.26777 1.37493 0 0 0 0
59 1 2 8.26777 1.76777 0 0 0 0
21 1 1 1.64299 2.01719 0.1 0 0 0
20 1 1 1.99902 2.18321 0.1 0 0 0
19 1 1 2.35505 2.34923 0.1 0 0 0
81 1 3 1.73223 7.23223 0.05 0.05 0 0
82 1 3 2.12507 7.23223 0.05 0.05 0 0
116 1 3 1.73223 7.62507 0.05 0.05 0 0
83 1 3 2.51791 7.23223 0.05 0.05 0 0
84 1 3 2.91074 7.23223 0.05 0.05 0 0
85 1 3 3.30358 7.23223 0.05 0.05 0 0
86 1 3 3.69642 7.23223 0.05 0.05 0 0
87 1 3 4.08926 7.23223 0.05 0.05 0 0
88 1 3 4.48209 7.23223 0.05 0.05 0 0
89 1 3 4.87493 7.23223 0.05 0.05 0 0
90 1 3 5.26777 7.23223 0.05 0.05 0 0
91 1 3 5.26777 7.62507 0.05 0.05 0 0
115 1 3 1.73223 8.01791 0.05 0.05 0 0
92 1 3 5.26777 8.01791 0.05 0.05 0 0
113 1 3 1.73223 8.80358 0.05 0.05 0 0
114 1 3 1.73223 8.41074 0.05 0.05 0 0
93 1 3 5.26777 8.41074 0.05 0.05 0 0
94 1 3 5.26777 8.80358 0.05 0.05 0 0
112 1 3 1.73223 9.19642 0.05 0.05 0 0
111 1 3 1.73223 9.58926 0.05 0.05 0 0
95 1 3 5.26777 9.19642 0.05 0.05 0 0
96 1 3 5.26777 9.58926 0.05 0.05 0 0
110 1 3 1.73223 9.98209 0.05 0.05 0 0
97 1 3 5.26777 9.98209 0.05 0.05 0 0
107 1 3 2.12507 -9.23223 0.05 0.05 0 0
108 1 3 1.73223 -9.23223 0.05 0.05 0 0
109 1 3 1.73223 -9.62507 0.05 0.05 0 0
106 1 3 2.51791 -9.23223 0.05 0.05 0 0
105 1 3 2.91074 -9.23223 0.05 0.05 0 0
104 1 3 3.30358 -9.23223 0.05 0.05 0 0
102 1 3 4.08926 -9.23223 0.05 0.05 0 0
103 1 3 3.69642 -9.23223 0.05 0.05 0 0
101 1 3 4.48209 -9.23223 0.05 0.05 0 0
100 1 3 4.87493 -9.23223 0.05 0.05 0 0
98 1 3 5.26777 -9.62507 0.05 0.05 0 0
99 1 3 5.26777 -9.23223 0.05 0.05 0 0
ITEM: TIMESTEP
800
ITEM: NUMBER OF ATOMS
144
ITEM: BOX BOUNDS pp pp pp
-1.0000000000000000e+01 1.0000000000000000e+01
-1.0000000000000000e+01 1.0000000000000000e+01
-5.0000000000000000e-01 5.0000000000000000e-01
ITEM: ATOMS id type mol x y vx vy fx fy
129 1 4 -1.02107 -7.4932 0 0 0 0
130 1 4 -0.85505 -7.84923 0 0 0 0
131 1 4 -0.499019 -7.68321 0 0 0 0
132 1 4 -0.142988 -7.51719 0 0 0 0
133 1 4 0.213044 -7.35117 0 0 0 0
127 1 4 -1.35311 -6.78114 0 0 0 0
128 1 4 -1.18709 -7.13717 0 0 0 0
134 1 4 0.569075 -7.18515 0 0 0 0
135 1 4 0.925106 -7.01913 0 0 0 0
136 1 4 1.28114 -6.85311 0 0 0 0
137 1 4 1.63717 -6.68709 0 0 0 0
125 1 4 -1.68515 -6.06907 0 0 0 0
126 1 4 -1.51913 -6.42511 0 0 0 0
138 1 4 1.9932 -6.52107 0 0 0 0
139 1 4 2.34923 -6.35505 0 0 0 0
123 1 4 -2.01719 -5.35701 0 0 0 0
124 1 4 -1.85117 -5.71304 0 0 0 0
140 1 4 2.18321 -5.99902 0 0 0 0
141 1 4 2.01719 -5.64299 0 0 0 0
122 1 4 -2.18321 -5.00098 0 0 0 0
142 1 4 1.85117 -5.28696 0 0 0 0
143 1 4 1.68515 -4.93093 0 0 0 0
121 1 4 -2.34923 -4.64495 0 0 0 0
155 1 4 -1.63717 -4.31291 0 0 0 0
156 1 4 -1.9932 -4.47893 0 0 0 0
154 1 4 -1.28114 -4.14689 0 0 0 0
144 1 4 1.51913 -4.57489 0 0 0 0
145 1 4 1.35311 -4.21886 0 0 0 0
153 1 4 -0.925106 -3.98087 0 0 0 0
151 1 4 -0.213044 -3.64883 0 0 0 0
152 1 4 -0.569075 -3.81485 0 0 0 0
150 1 4 0.142988 -3.48281 0 0 0 0
146 1 4 1.18709 -3.86283 0 0 0 0
147 1 4 1.02107 -3.5068 0 0 0 0
149 1 4 0.499019 -3.31679 0 0 0 0
148 1 4 0.85505 -3.15077 0 0 0 0
1 1 1 1.62675 -2.34609 0.0554715 0.00775555 0 0
2 1 1 1.98338 -2.18136 0.0569338 0.00458977 0 0
3 1 1 2.34002 -2.01664 0.058396 0.00142398 0 0
35 1 1 1.2973 -1.63283 0.0618031 0.0106801 0 0
36 1 1 1.46203 -1.98946 0.0586373 0.00921781 0 0
4 1 1 2.69665 -1.85191 0.0598583 -0.0017418 0 0
5 1 1 3.05328 -1.68718 0.0613205 -0.00490758 0 0
6 1 1 3.40991 -1.52246 0.0627828 -0.00807337 0 0
7 1 1 3.76654 -1.35773 0.0642451 -0.0112392 0 0
41 1 2 4.74841 -1.77426 0.0397349 -0.0160051 0 0
42 1 2 5.14124 -1.77282 0.0397219 -0.0124553 0 0
76 1 2 4.74696 -1.38143 0.0361852 -0.0160181 0 0
43 1 2 5.53407 -1.77138 0.0397089 -0.00890553 0 0
44 1 2 5.92691 -1.76994 0.0396959 -0.00535575 0 0
45 1 2 6.31974 -1.7685 0.0396828 -0.00180597 0 0
46 1 2 6.71258 -1.76706 0.0396698 0.00174381 0 0
47 1 2 7.10541 -1.76561 0.0396568 0.00529359 0 0
48 1 2 7.49825 -1.76417 0.0396437 0.00884337 0 0
49 1 2 7.89108 -1.76273 0.0396307 0.0123932 0 0
50 1 2 8.28392 -1.76129 0.0396177 0.0159429 0 0
51 1 2 8.28247 -1.36846 0.0360679 0.0159299 0 0
33 1 1 0.967847 -0.919563 0.0681346 0.0136046 0 0
34 1 1 1.13257 -1.27619 0.0649688 0.0121423 0 0
8 1 1 4.12317 -1.193 0.0657073 -0.0144049 0 0
9 1 1 4.47981 -1.02828 0.0671696 -0.0175707 0 0
10 1 1 4.83644 -0.863551 0.0686318 -0.0207365 -0.0355936 0.000272812
75 1 2 4.74552 -0.988596 0.0326354 -0.0160311 0.0355936 -0.000272812
52 1 2 8.28103 -0.975621 0.0325181 0.0159169 0 0
31 1 1 0.638394 -0.2063 0.0744662 0.0165291 0 0
32 1 1 0.80312 -0.562931 0.0713004 0.0150669 0 0
12 1 1 4.50699 -0.150288 0.0749634 -0.017812 0 0
11 1 1 4.67171 -0.506919 0.0717976 -0.0192742 0 0
73 1 2 4.74264 -0.202927 0.0255358 -0.0160572 0 0
74 1 2 4.74408 -0.595761 0.0290856 -0.0160442 0 0
53 1 2 8.27959 -0.582787 0.0289684 0.0159038 0 0
54 1 2 8.27815 -0.189952 0.0254186 0.0158908 0 0
29 1 1 0.308941 0.506964 0.0807978 0.0194536 0 0
30 1 1 0.473667 0.150332 0.077632 0.0179914 0 0
14 1 1 4.17753 0.562976 0.081295 -0.0148875 0 0
13 1 1 4.34226 0.206344 0.0781292 -0.0163497 0 0
71 1 2 4.73976 0.582742 0.0184363 -0.0160832 0 0
72 1 2 4.7412 0.189908 0.021986 -0.0160702 0 0
55 1 2 8.27671 0.202882 0.0218688 0.0158778 0 0
56 1 2 8.27527 0.595717 0.018319 0.0158648 0 0
28 1 1 0.144214 0.863595 0.0839636 0.0209159 0 0
27 1 1 0.500846 1.02832 0.0854258 0.0177501 0 0
26 1 1 0.857478 1.19305 0.0868881 0.0145843 0 0
16 1 1 3.84808 1.27624 0.0876265 -0.0119629 0 0
15 1 1 4.01281 0.919607 0.0844608 -0.0134252 0 0
70 1 2 4.73831 0.975577 0.0148865 -0.0160963 0 0
57 1 2 8.27382 0.988551 0.0147692 0.0158517 0 0
25 1 1 1.21411 1.35777 0.0883503 0.0114186 0 0
24 1 1 1.57074 1.5225 0.0898126 0.00825277 0 0
23 1 1 1.92737 1.68723 0.0912749 0.00508698 0 0
22 1 1 2.284 1.85195 0.0927371 0.0019212 0 0
18 1 1 3.51863 1.9895 0.0939581 -0.00903841 0 0
17 1 1 3.68335 1.63287 0.0907923 -0.0105007 0 0
67 1 2 5.12827 1.76269 0.00777389 -0.0125726 0 0
68 1 2 4.73543 1.76125 0.00778691 -0.0161223 0 0
69 1 2 4.73687 1.36841 0.0113367 -0.0161093 0 0
65 1 2 5.91393 1.76557 0.00774783 -0.00547299 0 0
66 1 2 5.5211 1.76413 0.00776086 -0.00902277 0 0
64 1 2 6.30677 1.76701 0.00773481 -0.00192321 0 0
62 1 2 7.09244 1.7699 0.00770875 0.00517635 0 0
63 1 2 6.6996 1.76845 0.00772178 0.00162657 0 0
60 1 2 7.87811 1.77278 0.0076827 0.0122759 0 0
61 1 2 7.48527 1.77134 0.00769573 0.00872613 0 0
58 1 2 8.27238 1.38139 0.0112195 0.0158387 0 0
59 1 2 8.27094 1.77422 0.00766967 0.0158257 0 0
21 1 1 2.64064 2.01668 0.0941994 -0.00124458 0 0
20 1 1 2.99727 2.18141 0.0956616 -0.00441037 0 0
19 1 1 3.3539 2.34613 0.0971239 -0.00757615 0 0
81 1 3 2.23223 7.73223 0.05 0.05 0 0
82 1 3 2.62507 7.73223 0.05 0.05 0 0
116 1 3 2.23223 8.12507 0.05 0.05 0 0
83 1 3 3.01791 7.73223 0.05 0.05 0 0
84 1 3 3.41074 7.73223 0.05 0.05 0 0
85 1 3 3.80358 7.73223 0.05 0.05 0 0
86 1 3 4.19642 7.73223 0.05 0.05 0 0
87 1 3 4.58926 7.73223 0.05 0.05 0 0
88 1 3 4.98209 7.73223 0.05 0.05 0 0
89 1 3 5.37493 7.73223 0.05 0.05 0 0
90 1 3 5.76777 7.73223 0.05 0.05 0 0
91 1 3 5.76777 8.12507 0.05 0.05 0 0
115 1 3 2.23223 8.51791 0.05 0.05 0 0
92 1 3 5.76777 8.51791 0.05 0.05 0 0
113 1 3 2.23223 9.30358 0.05 0.05 0 0
114 1 3 2.23223 8.91074 0.05 0.05 0 0
93 1 3 5.76777 8.91074 0.05 0.05 0 0
94 1 3 5.76777 9.30358 0.05 0.05 0 0
112 1 3 2.23223 9.69642 0.05 0.05 0 0
111 1 3 2.23223 -9.91074 0.05 0.05 0 0
95 1 3 5.76777 9.69642 0.05 0.05 0 0
96 1 3 5.76777 -9.91074 0.05 0.05 0 0
110 1 3 2.23223 -9.51791 0.05 0.05 0 0
97 1 3 5.76777 -9.51791 0.05 0.05 0 0
107 1 3 2.62507 -8.73223 0.05 0.05 0 0
108 1 3 2.23223 -8.73223 0.05 0.05 0 0
109 1 3 2.23223 -9.12507 0.05 0.05 0 0
106 1 3 3.01791 -8.73223 0.05 0.05 0 0
105 1 3 3.41074 -8.73223 0.05 0.05 0 0
104 1 3 3.80358 -8.73223 0.05 0.05 0 0
102 1 3 4.58926 -8.73223 0.05 0.05 0 0
103 1 3 4.19642 -8.73223 0.05 0.05 0 0
101 1 3 4.98209 -8.73223 0.05 0.05 0 0
100 1 3 5.37493 -8.73223 0.05 0.05 0 0
98 1 3 5.76777 -9.12507 0.05 0.05 0 0
99 1 3 5.76777 -8.73223 0.05 0.05 0 0
ITEM: TIMESTEP
900
ITEM: NUMBER OF ATOMS
144
ITEM: BOX BOUNDS pp pp pp
-1.0000000000000000e+01 1.0000000000000000e+01
-1.0000000000000000e+01 1.0000000000000000e+01
-5.0000000000000000e-01 5.0000000000000000e-01
ITEM: ATOMS id type mol x y vx vy fx fy
129 1 4 -1.02107 -7.4932 0 0 0 0
130 1 4 -0.85505 -7.84923 0 0 0 0
131 1 4 -0.499019 -7.68321 0 0 0 0
132 1 4 -0.142988 -7.51719 0 0 0 0
133 1 4 0.213044 -7.35117 0 0 0 0
127 1 4 -1.35311 -6.78114 0 0 0 0
128 1 4 -1.18709 -7.13717 0 0 0 0
134 1 4 0.569075 -7.18515 0 0 0 0
135 1 4 0.925106 -7.01913 0 0 0 0
136 1 4 1.28114 -6.85311 0 0 0 0
137 1 4 1.63717 -6.68709 0 0 0 0
125 1 4 -1.68515 -6.06907 0 0 0 0
126 1 4 -1.51913 -6.42511 0 0 0 0
138 1 4 1.9932 -6.52107 0 0 0 0
139 1 4 2.34923 -6.35505 0 0 0 0
123 1 4 -2.01719 -5.35701 0 0 0 0
124 1 4 -1.85117 -5.71304 0 0 0 0
140 1 4 2.18321 -5.99902 0 0 0 0
141 1 4 2.01719 -5.64299 0 0 0 0
122 1 4 -2.18321 -5.00098 0 0 0 0
142 1 4 1.85117 -5.28696 0 0 0 0
143 1 4 1.68515 -4.93093 0 0 0 0
121 1 4 -2.34923 -4.64495 0 0 0 0
155 1 4 -1.63717 -4.31291 0 0 0 0
156 1 4 -1.9932 -4.47893 0 0 0 0
154 1 4 -1.28114 -4.14689 0 0 0 0
144 1 4 1.51913 -4.57489 0 0 0 0
145 1 4 1.35311 -4.21886 0 0 0 0
153 1 4 -0.925106 -3.98087 0 0 0 0
151 1 4 -0.213044 -3.64883 0 0 0 0
152 1 4 -0.569075 -3.81485 0 0 0 0
150 1 4 0.142988 -3.48281 0 0 0 0
146 1 4 1.18709 -3.86283 0 0 0 0
147 1 4 1.02107 -3.5068 0 0 0 0
149 1 4 0.499019 -3.31679 0 0 0 0
148 1 4 0.85505 -3.15077 0 0 0 0
1 1 1 1.34356 -2.03065 -0.0304188 0.0408664 0 0
2 1 1 1.73055 -1.96314 -0.0285756 0.0303002 0 0
3 1 1 2.11754 -1.89564 -0.0267324 0.0197339 0 0
35 1 1 1.20854 -1.25667 -0.00928636 0.0445529 0 0
36 1 1 1.27605 -1.64366 -0.0198526 0.0427097 0 0
4 1 1 2.50454 -1.82813 -0.0248892 0.0091677 0 0
5 1 1 2.89153 -1.76062 -0.023046 -0.00139854 0 0
6 1 1 3.27852 -1.69311 -0.0212028 -0.0119648 0 0
7 1 1 3.66552 -1.6256 -0.0193595 -0.022531 0 0
41 1 2 6.02883 -2.21325 0.140847 -0.0374793 0 0
42 1 2 6.40534 -2.10117 0.137469 -0.0261307 0 0
76 1 2 5.91675 -1.83674 0.129498 -0.0408575 0 0
43 1 2 6.78185 -1.98909 0.134091 -0.0147821 0 0
44 1 2 7.15836 -1.87701 0.130712 -0.00343354 0 0
45 1 2 7.53487 -1.76494 0.127334 0.00791504 0 0
46 1 2 7.91138 -1.65286 0.123956 0.0192636 0 0
47 1 2 8.28788 -1.54078 0.120578 0.0306122 0 0
48 1 2 8.66439 -1.4287 0.117199 0.0419608 0 0
49 1 2 9.0409 -1.31662 0.113821 0.0533094 0 0
50 1 2 9.41741 -1.20454 0.110443 0.064658 0 0
51 1 2 9.30533 -0.828028 0.0990942 0.0612797 0 0
33 1 1 1.07352 -0.482681 0.0118461 0.0482393 0 0
34 1 1 1.14103 -0.869674 0.00127989 0.0463961 0 0
8 1 1 4.05251 -1.55809 -0.0175163 -0.0330973 0 0
9 1 1 4.4395 -1.49058 -0.0156731 -0.0436635 0 0
10 1 1 4.82649 -1.42308 -0.0138299 -0.0542298 0 0
75 1 2 5.80467 -1.46024 0.11815 -0.0442358 0 0
52 1 2 9.19325 -0.451519 0.0877456 0.0579015 0 0
31 1 1 0.938506 0.291305 0.0329786 0.0519257 0 0
32 1 1 1.00601 -0.0956882 0.0224124 0.0500825 0 0
12 1 1 4.69148 -0.64909 0.00730261 -0.0505433 0 0
11 1 1 4.75899 -1.03608 -0.00326364 -0.0523865 0 0
73 1 2 5.58051 -0.707217 0.0954527 -0.0509923 0 0
74 1 2 5.69259 -1.08373 0.106801 -0.0476141 0 0
53 1 2 9.08117 -0.0750097 0.076397 0.0545232 0 0
54 1 2 8.96909 0.3015 0.0650484 0.0511449 0 0
29 1 1 0.803489 1.06529 0.0541111 0.0556122 0 0
30 1 1 0.870997 0.678298 0.0435449 0.053769 0 0
14 1 1 4.55646 0.124896 0.0284351 -0.0468569 0 0
13 1 1 4.62397 -0.262097 0.0178688 -0.0487001 0 0
71 1 2 5.35635 0.0458015 0.0727555 -0.0577488 0 0
72 1 2 5.46843 -0.330708 0.0841041 -0.0543706 0 0
55 1 2 8.85701 0.678009 0.0536998 0.0477667 0 0
56 1 2 8.74493 1.05452 0.0423512 0.0443884 0 0
28 1 1 0.73598 1.45228 0.0646773 0.0574554 0 0
27 1 1 1.12297 1.51979 0.0665206 0.0468892 0 0
26 1 1 1.50997 1.5873 0.0683638 0.0363229 0 0
16 1 1 4.42144 0.898882 0.0495676 -0.0431705 0 0
15 1 1 4.48895 0.511889 0.0390013 -0.0450137 0 0
70 1 2 5.24427 0.422311 0.061407 -0.0611271 0 0
57 1 2 8.63286 1.43103 0.0310027 0.0410102 0 0
25 1 1 1.89696 1.65481 0.070207 0.0257567 0 0
24 1 1 2.28395 1.72232 0.0720502 0.0151904 0 0
23 1 1 2.67094 1.78983 0.0738934 0.00462418 0 0
22 1 1 3.05794 1.85734 0.0757367 -0.00594206 0 0
18 1 1 4.28643 1.67287 0.0707001 -0.039484 0 0
17 1 1 4.35393 1.28588 0.0601338 -0.0413272 0 0
67 1 2 5.39662 1.28741 0.0353315 -0.056535 0 0
68 1 2 5.02011 1.17533 0.0387098 -0.0678836 0 0
69 1 2 5.13219 0.79882 0.0500584 -0.0645053 0 0
65 1 2 6.14964 1.51157 0.028575 -0.0338379 0 0
66 1 2 5.77313 1.39949 0.0319533 -0.0451864 0 0
64 1 2 6.52615 1.62365 0.0251968 -0.0224893 0 0
62 1 2 7.27917 1.84781 0.0184403 0.0002079 0 0
63 1 2 6.90266 1.73573 0.0218185 -0.0111407 0 0
60 1 2 8.03219 2.07197 0.0116837 0.0229051 0 0
61 1 2 7.65568 1.95989 0.015062 0.0115565 0 0
58 1 2 8.52078 1.80754 0.0196541 0.0376319 0 0
59 1 2 8.4087 2.18405 0.00830548 0.0342537 0 0
21 1 1 3.44493 1.92484 0.0775799 -0.0165083 0 0
20 1 1 3.83192 1.99235 0.0794231 -0.0270746 0 0
19 1 1 4.21892 2.05986 0.0812663 -0.0376408 0 0
81 1 3 2.73223 8.23223 0.05 0.05 0 0
82 1 3 3.12507 8.23223 0.05 0.05 0 0
116 1 3 2.73223 8.62507 0.05 0.05 0 0
83 1 3 3.51791 8.23223 0.05 0.05 0 0
84 1 3 3.91074 8.23223 0.05 0.05 0 0
85 1 3 4.30358 8.23223 0.05 0.05 0 0
86 1 3 4.69642 8.23223 0.05 0.05 0 0
87 1 3 5.08926 8.23223 0.05 0.05 0 0
88 1 3 5.48209 8.23223 0.05 0.05 0 0
89 1 3 5.87493 8.23223 0.05 0.05 0 0
90 1 3 6.26777 8.23223 0.05 0.05 0 0
91 1 3 6.26777 8.62507 0.05 0.05 0 0
115 1 3 2.73223 9.01791 0.05 0.05 0 0
92 1 3 6.26777 9.01791 0.05 0.05 0 0
113 1 3 2.73223 9.80358 0.05 0.05 0 0
114 1 3 2.73223 9.41074 0.05 0.05 0 0
93 1 3 6.26777 9.41074 0.05 0.05 0 0
94 1 3 6.26777 9.80358 0.05 0.05 0 0
112 1 3 2.73223 -9.80358 0.05 0.05 0 0
111 1 3 2.73223 -9.41074 0.05 0.05 0 0
95 1 3 6.26777 -9.80358 0.05 0.05 0 0
96 1 3 6.26777 -9.41074 0.05 0.05 0 0
110 1 3 2.73223 -9.01791 0.05 0.05 0 0
97 1 3 6.26777 -9.01791 0.05 0.05 0 0
107 1 3 3.12507 -8.23223 0.05 0.05 0 0
108 1 3 2.73223 -8.23223 0.05 0.05 0 0
109 1 3 2.73223 -8.62507 0.05 0.05 0 0
106 1 3 3.51791 -8.23223 0.05 0.05 0 0
105 1 3 3.91074 -8.23223 0.05 0.05 0 0
104 1 3 4.30358 -8.23223 0.05 0.05 0 0
102 1 3 5.08926 -8.23223 0.05 0.05 0 0
103 1 3 4.69642 -8.23223 0.05 0.05 0 0
101 1 3 5.48209 -8.23223 0.05 0.05 0 0
100 1 3 5.87493 -8.23223 0.05 0.05 0 0
98 1 3 6.26777 -8.62507 0.05 0.05 0 0
99 1 3 6.26777 -8.23223 0.05 0.05 0 0
ITEM: TIMESTEP
1000
ITEM: NUMBER OF ATOMS
144
ITEM: BOX BOUNDS pp pp pp
-1.0000000000000000e+01 1.0000000000000000e+01
-1.0000000000000000e+01 1.0000000000000000e+01
-5.0000000000000000e-01 5.0000000000000000e-01
ITEM: ATOMS id type mol x y vx vy fx fy
129 1 4 -1.02107 -7.4932 0 0 0 0
130 1 4 -0.85505 -7.84923 0 0 0 0
131 1 4 -0.499019 -7.68321 0 0 0 0
132 1 4 -0.142988 -7.51719 0 0 0 0
133 1 4 0.213044 -7.35117 0 0 0 0
127 1 4 -1.35311 -6.78114 0 0 0 0
128 1 4 -1.18709 -7.13717 0 0 0 0
134 1 4 0.569075 -7.18515 0 0 0 0
135 1 4 0.925106 -7.01913 0 0 0 0
136 1 4 1.28114 -6.85311 0 0 0 0
137 1 4 1.63717 -6.68709 0 0 0 0
125 1 4 -1.68515 -6.06907 0 0 0 0
126 1 4 -1.51913 -6.42511 0 0 0 0
138 1 4 1.9932 -6.52107 0 0 0 0
139 1 4 2.34923 -6.35505 0 0 0 0
123 1 4 -2.01719 -5.35701 0 0 0 0
124 1 4 -1.85117 -5.71304 0 0 0 0
140 1 4 2.18321 -5.99902 0 0 0 0
141 1 4 2.01719 -5.64299 0 0 0 0
122 1 4 -2.18321 -5.00098 0 0 0 0
142 1 4 1.85117 -5.28696 0 0 0 0
143 1 4 1.68515 -4.93093 0 0 0 0
121 1 4 -2.34923 -4.64495 0 0 0 0
155 1 4 -1.63717 -4.31291 0 0 0 0
156 1 4 -1.9932 -4.47893 0 0 0 0
154 1 4 -1.28114 -4.14689 0 0 0 0
144 1 4 1.51913 -4.57489 0 0 0 0
145 1 4 1.35311 -4.21886 0 0 0 0
153 1 4 -0.925106 -3.98087 0 0 0 0
151 1 4 -0.213044 -3.64883 0 0 0 0
152 1 4 -0.569075 -3.81485 0 0 0 0
150 1 4 0.142988 -3.48281 0 0 0 0
146 1 4 1.18709 -3.86283 0 0 0 0
147 1 4 1.02107 -3.5068 0 0 0 0
149 1 4 0.499019 -3.31679 0 0 0 0
148 1 4 0.85505 -3.15077 0 0 0 0
1 1 1 1.09954 -1.55109 -0.0177653 0.0544706 0 0
2 1 1 1.4904 -1.59043 -0.0188396 0.0437987 0 0
3 1 1 1.88126 -1.62978 -0.0199139 0.0331268 0 0
35 1 1 1.17823 -0.769362 0.0035784 0.052322 0 0
36 1 1 1.13888 -1.16022 -0.00709347 0.0533963 0 0