ITEM: TIMESTEP
500
ITEM: NUMBER OF ATOMS
144
ITEM: BOX BOUNDS pp pp pp
-1.0000000000000000e+01 1.0000000000000000e+01
-1.0000000000000000e+01 1.0000000000000000e+01
-5.0000000000000000e-01 5.0000000000000000e-01
ITEM: ATOMS id type mol x y vx vy fx fy
109 1 4 -1.76777 -7.26777 0 0 0 0
110 1 4 -1.37493 -7.26777 0 0 0 0
144 1 4 -1.76777 -6.87493 0 0 0 0
111 1 4 -0.982093 -7.26777 0 0 0 0
112 1 4 -0.589256 -7.26777 0 0 0 0
113 1 4 -0.196419 -7.26777 0 0 0 0
114 1 4 0.196419 -7.26777 0 0 0 0
115 1 4 0.589256 -7.26777 0 0 0 0
116 1 4 0.982093 -7.26777 0 0 0 0
117 1 4 1.37493 -7.26777 0 0 0 0
118 1 4 1.76777 -7.26777 0 0 0 0
119 1 4 1.76777 -6.87493 0 0 0 0
142 1 4 -1.76777 -6.08926 0 0 0 0
143 1 4 -1.76777 -6.48209 0 0 0 0
120 1 4 1.76777 -6.48209 0 0 0 0
121 1 4 1.76777 -6.08926 0 0 0 0
141 1 4 -1.76777 -5.69642 0 0 0 0
122 1 4 1.76777 -5.69642 0 0 0 0
139 1 4 -1.76777 -4.91074 0 0 0 0
140 1 4 -1.76777 -5.30358 0 0 0 0
123 1 4 1.76777 -5.30358 0 0 0 0
124 1 4 1.76777 -4.91074 0 0 0 0
137 1 4 -1.76777 -4.12507 0 0 0 0
138 1 4 -1.76777 -4.51791 0 0 0 0
125 1 4 1.76777 -4.51791 0 0 0 0
126 1 4 1.76777 -4.12507 0 0 0 0
135 1 4 -1.37493 -3.73223 0 0 0 0
136 1 4 -1.76777 -3.73223 0 0 0 0
134 1 4 -0.982093 -3.73223 0 0 0 0
132 1 4 -0.196419 -3.73223 0 0 0 0
133 1 4 -0.589256 -3.73223 0 0 0 0
130 1 4 0.589256 -3.73223 0 0 0 0
131 1 4 0.196419 -3.73223 0 0 0 0
129 1 4 0.982093 -3.73223 0 0 0 0
127 1 4 1.76777 -3.73223 0 0 0 0
128 1 4 1.37493 -3.73223 0 0 0 0
1 1 1 -2.26777 -1.76777 0.1 0 0 0
36 1 1 -2.26777 -1.37493 0.1 0 0 0
2 1 1 -1.87493 -1.76777 0.1 0 0 0
3 1 1 -1.48209 -1.76777 0.1 0 0 0
4 1 1 -1.08926 -1.76777 0.1 0 0 0
5 1 1 -0.696419 -1.76777 0.1 0 0 0
6 1 1 -0.303581 -1.76777 0.1 0 0 0
7 1 1 0.0892557 -1.76777 0.1 0 0 0
8 1 1 0.482093 -1.76777 0.1 0 0 0
9 1 1 0.87493 -1.76777 0.1 0 0 0
10 1 1 1.26777 -1.76777 0.1 0 0 0
11 1 1 1.26777 -1.37493 0.1 0 0 0
37 1 2 3.73223 -1.76777 0 0 0 0
72 1 2 3.73223 -1.37493 0 0 0 0
38 1 2 4.12507 -1.76777 0 0 0 0
39 1 2 4.51791 -1.76777 0 0 0 0
40 1 2 4.91074 -1.76777 0 0 0 0
41 1 2 5.30358 -1.76777 0 0 0 0
42 1 2 5.69642 -1.76777 0 0 0 0
43 1 2 6.08926 -1.76777 0 0 0 0
44 1 2 6.48209 -1.76777 0 0 0 0
45 1 2 6.87493 -1.76777 0 0 0 0
46 1 2 7.26777 -1.76777 0 0 0 0
47 1 2 7.26777 -1.37493 0 0 0 0
35 1 1 -2.26777 -0.982093 0.1 0 0 0
12 1 1 1.26777 -0.982093 0.1 0 0 0
71 1 2 3.73223 -0.982093 0 0 0 0
48 1 2 7.26777 -0.982093 0 0 0 0
33 1 1 -2.26777 -0.196419 0.1 0 0 0
34 1 1 -2.26777 -0.589256 0.1 0 0 0
13 1 1 1.26777 -0.589256 0.1 0 0 0
14 1 1 1.26777 -0.196419 0.1 0 0 0
69 1 2 3.73223 -0.196419 0 0 0 0
70 1 2 3.73223 -0.589256 0 0 0 0
49 1 2 7.26777 -0.589256 0 0 0 0
50 1 2 7.26777 -0.196419 0 0 0 0
31 1 1 -2.26777 0.589256 0.1 0 0 0
32 1 1 -2.26777 0.196419 0.1 0 0 0
15 1 1 1.26777 0.196419 0.1 0 0 0
16 1 1 1.26777 0.589256 0.1 0 0 0
67 1 2 3.73223 0.589256 0 0 0 0
68 1 2 3.73223 0.196419 0 0 0 0
51 1 2 7.26777 0.196419 0 0 0 0
52 1 2 7.26777 0.589256 0 0 0 0
30 1 1 -2.26777 0.982093 0.1 0 0 0
17 1 1 1.26777 0.982093 0.1 0 0 0
66 1 2 3.73223 0.982093 0 0 0 0
53 1 2 7.26777 0.982093 0 0 0 0
28 1 1 -2.26777 1.76777 0.1 0 0 0
29 1 1 -2.26777 1.37493 0.1 0 0 0
27 1 1 -1.87493 1.76777 0.1 0 0 0
26 1 1 -1.48209 1.76777 0.1 0 0 0
25 1 1 -1.08926 1.76777 0.1 0 0 0
24 1 1 -0.696419 1.76777 0.1 0 0 0
23 1 1 -0.303581 1.76777 0.1 0 0 0
22 1 1 0.0892557 1.76777 0.1 0 0 0
21 1 1 0.482093 1.76777 0.1 0 0 0
20 1 1 0.87493 1.76777 0.1 0 0 0
18 1 1 1.26777 1.37493 0.1 0 0 0
19 1 1 1.26777 1.76777 0.1 0 0 0
64 1 2 3.73223 1.76777 0 0 0 0
65 1 2 3.73223 1.37493 0 0 0 0
62 1 2 4.51791 1.76777 0 0 0 0
63 1 2 4.12507 1.76777 0 0 0 0
60 1 2 5.30358 1.76777 0 0 0 0
61 1 2 4.91074 1.76777 0 0 0 0
59 1 2 5.69642 1.76777 0 0 0 0
57 1 2 6.48209 1.76777 0 0 0 0
58 1 2 6.08926 1.76777 0 0 0 0
54 1 2 7.26777 1.37493 0 0 0 0
55 1 2 7.26777 1.76777 0 0 0 0
56 1 2 6.87493 1.76777 0 0 0 0
73 1 3 0.732233 6.23223 0.05 0.05 0 0
74 1 3 1.12507 6.23223 0.05 0.05 0 0
108 1 3 0.732233 6.62507 0.05 0.05 0 0
75 1 3 1.51791 6.23223 0.05 0.05 0 0
76 1 3 1.91074 6.23223 0.05 0.05 0 0
77 1 3 2.30358 6.23223 0.05 0.05 0 0
78 1 3 2.69642 6.23223 0.05 0.05 0 0
79 1 3 3.08926 6.23223 0.05 0.05 0 0
80 1 3 3.48209 6.23223 0.05 0.05 0 0
81 1 3 3.87493 6.23223 0.05 0.05 0 0
82 1 3 4.26777 6.23223 0.05 0.05 0 0
83 1 3 4.26777 6.62507 0.05 0.05 0 0
107 1 3 0.732233 7.01791 0.05 0.05 0 0
84 1 3 4.26777 7.01791 0.05 0.05 0 0
105 1 3 0.732233 7.80358 0.05 0.05 0 0
106 1 3 0.732233 7.41074 0.05 0.05 0 0
85 1 3 4.26777 7.41074 0.05 0.05 0 0
86 1 3 4.26777 7.80358 0.05 0.05 0 0
104 1 3 0.732233 8.19642 0.05 0.05 0 0
103 1 3 0.732233 8.58926 0.05 0.05 0 0
87 1 3 4.26777 8.19642 0.05 0.05 0 0
88 1 3 4.26777 8.58926 0.05 0.05 0 0
102 1 3 0.732233 8.98209 0.05 0.05 0 0
89 1 3 4.26777 8.98209 0.05 0.05 0 0
99 1 3 1.12507 9.76777 0.05 0.05 0 0
100 1 3 0.732233 9.76777 0.05 0.05 0 0
101 1 3 0.732233 9.37493 0.05 0.05 0 0
98 1 3 1.51791 9.76777 0.05 0.05 0 0
97 1 3 1.91074 9.76777 0.05 0.05 0 0
96 1 3 2.30358 9.76777 0.05 0.05 0 0
94 1 3 3.08926 9.76777 0.05 0.05 0 0
95 1 3 2.69642 9.76777 0.05 0.05 0 0
93 1 3 3.48209 9.76777 0.05 0.05 0 0
92 1 3 3.87493 9.76777 0.05 0.05 0 0
90 1 3 4.26777 9.37493 0.05 0.05 0 0
91 1 3 4.26777 9.76777 0.05 0.05 0 0
ITEM: TIMESTEP
600
ITEM: NUMBER OF ATOMS
144
ITEM: BOX BOUNDS pp pp pp
-1.0000000000000000e+01 1.0000000000000000e+01
-1.0000000000000000e+01 1.0000000000000000e+01
-5.0000000000000000e-01 5.0000000000000000e-01
ITEM: ATOMS id type mol x y vx vy fx fy
109 1 4 -1.76777 -7.26777 0 0 0 0
110 1 4 -1.37493 -7.26777 0 0 0 0
144 1 4 -1.76777 -6.87493 0 0 0 0
111 1 4 -0.982093 -7.26777 0 0 0 0
112 1 4 -0.589256 -7.26777 0 0 0 0
113 1 4 -0.196419 -7.26777 0 0 0 0
114 1 4 0.196419 -7.26777 0 0 0 0
115 1 4 0.589256 -7.26777 0 0 0 0
116 1 4 0.982093 -7.26777 0 0 0 0
117 1 4 1.37493 -7.26777 0 0 0 0
118 1 4 1.76777 -7.26777 0 0 0 0
119 1 4 1.76777 -6.87493 0 0 0 0
142 1 4 -1.76777 -6.08926 0 0 0 0
143 1 4 -1.76777 -6.48209 0 0 0 0
120 1 4 1.76777 -6.48209 0 0 0 0
121 1 4 1.76777 -6.08926 0 0 0 0
141 1 4 -1.76777 -5.69642 0 0 0 0
122 1 4 1.76777 -5.69642 0 0 0 0
139 1 4 -1.76777 -4.91074 0 0 0 0
140 1 4 -1.76777 -5.30358 0 0 0 0
123 1 4 1.76777 -5.30358 0 0 0 0
124 1 4 1.76777 -4.91074 0 0 0 0
137 1 4 -1.76777 -4.12507 0 0 0 0
138 1 4 -1.76777 -4.51791 0 0 0 0
125 1 4 1.76777 -4.51791 0 0 0 0
126 1 4 1.76777 -4.12507 0 0 0 0
135 1 4 -1.37493 -3.73223 0 0 0 0
136 1 4 -1.76777 -3.73223 0 0 0 0
134 1 4 -0.982093 -3.73223 0 0 0 0
132 1 4 -0.196419 -3.73223 0 0 0 0
133 1 4 -0.589256 -3.73223 0 0 0 0
130 1 4 0.589256 -3.73223 0 0 0 0
131 1 4 0.196419 -3.73223 0 0 0 0
129 1 4 0.982093 -3.73223 0 0 0 0
127 1 4 1.76777 -3.73223 0 0 0 0
128 1 4 1.37493 -3.73223 0 0 0 0
1 1 1 -1.26777 -1.76777 0.1 0 0 0
36 1 1 -1.26777 -1.37493 0.1 0 0 0
2 1 1 -0.87493 -1.76777 0.1 0 0 0
3 1 1 -0.482093 -1.76777 0.1 0 0 0
4 1 1 -0.0892557 -1.76777 0.1 0 0 0
5 1 1 0.303581 -1.76777 0.1 0 0 0
6 1 1 0.696419 -1.76777 0.1 0 0 0
7 1 1 1.08926 -1.76777 0.1 0 0 0
8 1 1 1.48209 -1.76777 0.1 0 0 0
9 1 1 1.87493 -1.76777 0.1 0 0 0
10 1 1 2.26777 -1.76777 0.1 0 0 0
11 1 1 2.26777 -1.37493 0.1 0 0 0
37 1 2 3.73223 -1.76777 0 0 0 0
72 1 2 3.73223 -1.37493 0 0 0 0
38 1 2 4.12507 -1.76777 0 0 0 0
39 1 2 4.51791 -1.76777 0 0 0 0
40 1 2 4.91074 -1.76777 0 0 0 0
41 1 2 5.30358 -1.76777 0 0 0 0
42 1 2 5.69642 -1.76777 0 0 0 0
43 1 2 6.08926 -1.76777 0 0 0 0
44 1 2 6.48209 -1.76777 0 0 0 0
45 1 2 6.87493 -1.76777 0 0 0 0
46 1 2 7.26777 -1.76777 0 0 0 0
47 1 2 7.26777 -1.37493 0 0 0 0
35 1 1 -1.26777 -0.982093 0.1 0 0 0
12 1 1 2.26777 -0.982093 0.1 0 0 0
71 1 2 3.73223 -0.982093 0 0 0 0
48 1 2 7.26777 -0.982093 0 0 0 0
33 1 1 -1.26777 -0.196419 0.1 0 0 0
34 1 1 -1.26777 -0.589256 0.1 0 0 0
13 1 1 2.26777 -0.589256 0.1 0 0 0
14 1 1 2.26777 -0.196419 0.1 0 0 0
69 1 2 3.73223 -0.196419 0 0 0 0
70 1 2 3.73223 -0.589256 0 0 0 0
49 1 2 7.26777 -0.589256 0 0 0 0
50 1 2 7.26777 -0.196419 0 0 0 0
31 1 1 -1.26777 0.589256 0.1 0 0 0
32 1 1 -1.26777 0.196419 0.1 0 0 0
15 1 1 2.26777 0.196419 0.1 0 0 0
16 1 1 2.26777 0.589256 0.1 0 0 0
67 1 2 3.73223 0.589256 0 0 0 0
68 1 2 3.73223 0.196419 0 0 0 0
51 1 2 7.26777 0.196419 0 0 0 0
52 1 2 7.26777 0.589256 0 0 0 0
30 1 1 -1.26777 0.982093 0.1 0 0 0
17 1 1 2.26777 0.982093 0.1 0 0 0
66 1 2 3.73223 0.982093 0 0 0 0
53 1 2 7.26777 0.982093 0 0 0 0
28 1 1 -1.26777 1.76777 0.1 0 0 0
29 1 1 -1.26777 1.37493 0.1 0 0 0
27 1 1 -0.87493 1.76777 0.1 0 0 0
26 1 1 -0.482093 1.76777 0.1 0 0 0
25 1 1 -0.0892557 1.76777 0.1 0 0 0
24 1 1 0.303581 1.76777 0.1 0 0 0
23 1 1 0.696419 1.76777 0.1 0 0 0
22 1 1 1.08926 1.76777 0.1 0 0 0
21 1 1 1.48209 1.76777 0.1 0 0 0
20 1 1 1.87493 1.76777 0.1 0 0 0
18 1 1 2.26777 1.37493 0.1 0 0 0
19 1 1 2.26777 1.76777 0.1 0 0 0
64 1 2 3.73223 1.76777 0 0 0 0
65 1 2 3.73223 1.37493 0 0 0 0
62 1 2 4.51791 1.76777 0 0 0 0
63 1 2 4.12507 1.76777 0 0 0 0
60 1 2 5.30358 1.76777 0 0 0 0
61 1 2 4.91074 1.76777 0 0 0 0
59 1 2 5.69642 1.76777 0 0 0 0
57 1 2 6.48209 1.76777 0 0 0 0
58 1 2 6.08926 1.76777 0 0 0 0
54 1 2 7.26777 1.37493 0 0 0 0
55 1 2 7.26777 1.76777 0 0 0 0
56 1 2 6.87493 1.76777 0 0 0 0
73 1 3 1.23223 6.73223 0.05 0.05 0 0
74 1 3 1.62507 6.73223 0.05 0.05 0 0
108 1 3 1.23223 7.12507 0.05 0.05 0 0
75 1 3 2.01791 6.73223 0.05 0.05 0 0
76 1 3 2.41074 6.73223 0.05 0.05 0 0
77 1 3 2.80358 6.73223 0.05 0.05 0 0
78 1 3 3.19642 6.73223 0.05 0.05 0 0
79 1 3 3.58926 6.73223 0.05 0.05 0 0
80 1 3 3.98209 6.73223 0.05 0.05 0 0
81 1 3 4.37493 6.73223 0.05 0.05 0 0
82 1 3 4.76777 6.73223 0.05 0.05 0 0
83 1 3 4.76777 7.12507 0.05 0.05 0 0
107 1 3 1.23223 7.51791 0.05 0.05 0 0
84 1 3 4.76777 7.51791 0.05 0.05 0 0
105 1 3 1.23223 8.30358 0.05 0.05 0 0
106 1 3 1.23223 7.91074 0.05 0.05 0 0
85 1 3 4.76777 7.91074 0.05 0.05 0 0
86 1 3 4.76777 8.30358 0.05 0.05 0 0
104 1 3 1.23223 8.69642 0.05 0.05 0 0
103 1 3 1.23223 9.08926 0.05 0.05 0 0
87 1 3 4.76777 8.69642 0.05 0.05 0 0
88 1 3 4.76777 9.08926 0.05 0.05 0 0
102 1 3 1.23223 9.48209 0.05 0.05 0 0
89 1 3 4.76777 9.48209 0.05 0.05 0 0
99 1 3 1.62507 -9.73223 0.05 0.05 0 0
100 1 3 1.23223 -9.73223 0.05 0.05 0 0
101 1 3 1.23223 9.87493 0.05 0.05 0 0
98 1 3 2.01791 -9.73223 0.05 0.05 0 0
97 1 3 2.41074 -9.73223 0.05 0.05 0 0
96 1 3 2.80358 -9.73223 0.05 0.05 0 0
94 1 3 3.58926 -9.73223 0.05 0.05 0 0
95 1 3 3.19642 -9.73223 0.05 0.05 0 0
93 1 3 3.98209 -9.73223 0.05 0.05 0 0
92 1 3 4.37493 -9.73223 0.05 0.05 0 0
90 1 3 4.76777 9.87493 0.05 0.05 0 0
91 1 3 4.76777 -9.73223 0.05 0.05 0 0
ITEM: TIMESTEP
700
ITEM: NUMBER OF ATOMS
144
ITEM: BOX BOUNDS pp pp pp
-1.0000000000000000e+01 1.0000000000000000e+01
-1.0000000000000000e+01 1.0000000000000000e+01
-5.0000000000000000e-01 5.0000000000000000e-01
ITEM: ATOMS id type mol x y vx vy fx fy
109 1 4 -1.76777 -7.26777 0 0 0 0
110 1 4 -1.37493 -7.26777 0 0 0 0
144 1 4 -1.76777 -6.87493 0 0 0 0
111 1 4 -0.982093 -7.26777 0 0 0 0
112 1 4 -0.589256 -7.26777 0 0 0 0
113 1 4 -0.196419 -7.26777 0 0 0 0
114 1 4 0.196419 -7.26777 0 0 0 0
115 1 4 0.589256 -7.26777 0 0 0 0
116 1 4 0.982093 -7.26777 0 0 0 0
117 1 4 1.37493 -7.26777 0 0 0 0
118 1 4 1.76777 -7.26777 0 0 0 0
119 1 4 1.76777 -6.87493 0 0 0 0
142 1 4 -1.76777 -6.08926 0 0 0 0
143 1 4 -1.76777 -6.48209 0 0 0 0
120 1 4 1.76777 -6.48209 0 0 0 0
121 1 4 1.76777 -6.08926 0 0 0 0
141 1 4 -1.76777 -5.69642 0 0 0 0
122 1 4 1.76777 -5.69642 0 0 0 0
139 1 4 -1.76777 -4.91074 0 0 0 0
140 1 4 -1.76777 -5.30358 0 0 0 0
123 1 4 1.76777 -5.30358 0 0 0 0
124 1 4 1.76777 -4.91074 0 0 0 0
137 1 4 -1.76777 -4.12507 0 0 0 0
138 1 4 -1.76777 -4.51791 0 0 0 0
125 1 4 1.76777 -4.51791 0 0 0 0
126 1 4 1.76777 -4.12507 0 0 0 0
135 1 4 -1.37493 -3.73223 0 0 0 0
136 1 4 -1.76777 -3.73223 0 0 0 0
134 1 4 -0.982093 -3.73223 0 0 0 0
132 1 4 -0.196419 -3.73223 0 0 0 0
133 1 4 -0.589256 -3.73223 0 0 0 0
130 1 4 0.589256 -3.73223 0 0 0 0
131 1 4 0.196419 -3.73223 0 0 0 0
129 1 4 0.982093 -3.73223 0 0 0 0
127 1 4 1.76777 -3.73223 0 0 0 0
128 1 4 1.37493 -3.73223 0 0 0 0
1 1 1 -0.267767 -1.76777 0.1 0 0 0
36 1 1 -0.267767 -1.37493 0.1 0 0 0
2 1 1 0.12507 -1.76777 0.1 0 0 0
3 1 1 0.517907 -1.76777 0.1 0 0 0
4 1 1 0.910744 -1.76777 0.1 0 0 0
5 1 1 1.30358 -1.76777 0.1 0 0 0
6 1 1 1.69642 -1.76777 0.1 0 0 0
7 1 1 2.08926 -1.76777 0.1 0 0 0
8 1 1 2.48209 -1.76777 0.1 0 0 0
9 1 1 2.87493 -1.76777 0.1 0 0 0
10 1 1 3.26777 -1.76777 0.1 0 0 0
11 1 1 3.26777 -1.37493 0.1 0 0 0
37 1 2 3.73223 -1.76777 0 0 0 0
72 1 2 3.73223 -1.37493 0 0 0 0
38 1 2 4.12507 -1.76777 0 0 0 0
39 1 2 4.51791 -1.76777 0 0 0 0
40 1 2 4.91074 -1.76777 0 0 0 0
41 1 2 5.30358 -1.76777 0 0 0 0
42 1 2 5.69642 -1.76777 0 0 0 0
43 1 2 6.08926 -1.76777 0 0 0 0
44 1 2 6.48209 -1.76777 0 0 0 0
45 1 2 6.87493 -1.76777 0 0 0 0
46 1 2 7.26777 -1.76777 0 0 0 0
47 1 2 7.26777 -1.37493 0 0 0 0
35 1 1 -0.267767 -0.982093 0.1 0 0 0
12 1 1 3.26777 -0.982093 0.1 0 0 0
71 1 2 3.73223 -0.982093 0 0 0 0
48 1 2 7.26777 -0.982093 0 0 0 0
33 1 1 -0.267767 -0.196419 0.1 0 0 0
34 1 1 -0.267767 -0.589256 0.1 0 0 0
13 1 1 3.26777 -0.589256 0.1 0 0 0
14 1 1 3.26777 -0.196419 0.1 0 0 0
69 1 2 3.73223 -0.196419 0 0 0 0
70 1 2 3.73223 -0.589256 0 0 0 0
49 1 2 7.26777 -0.589256 0 0 0 0
50 1 2 7.26777 -0.196419 0 0 0 0
31 1 1 -0.267767 0.589256 0.1 0 0 0
32 1 1 -0.267767 0.196419 0.1 0 0 0
15 1 1 3.26777 0.196419 0.1 0 0 0
16 1 1 3.26777 0.589256 0.1 0 0 0
67 1 2 3.73223 0.589256 0 0 0 0
68 1 2 3.73223 0.196419 0 0 0 0
51 1 2 7.26777 0.196419 0 0 0 0
52 1 2 7.26777 0.589256 0 0 0 0
30 1 1 -0.267767 0.982093 0.1 0 0 0
17 1 1 3.26777 0.982093 0.1 0 0 0
66 1 2 3.73223 0.982093 0 0 0 0
53 1 2 7.26777 0.982093 0 0 0 0
28 1 1 -0.267767 1.76777 0.1 0 0 0
29 1 1 -0.267767 1.37493 0.1 0 0 0
27 1 1 0.12507 1.76777 0.1 0 0 0
26 1 1 0.517907 1.76777 0.1 0 0 0
25 1 1 0.910744 1.76777 0.1 0 0 0
24 1 1 1.30358 1.76777 0.1 0 0 0
23 1 1 1.69642 1.76777 0.1 0 0 0
22 1 1 2.08926 1.76777 0.1 0 0 0
21 1 1 2.48209 1.76777 0.1 0 0 0
20 1 1 2.87493 1.76777 0.1 0 0 0
18 1 1 3.26777 1.37493 0.1 0 0 0
19 1 1 3.26777 1.76777 0.1 0 0 0
64 1 2 3.73223 1.76777 0 0 0 0
65 1 2 3.73223 1.37493 0 0 0 0
62 1 2 4.51791 1.76777 0 0 0 0
63 1 2 4.12507 1.76777 0 0 0 0
60 1 2 5.30358 1.76777 0 0 0 0
61 1 2 4.91074 1.76777 0 0 0 0
59 1 2 5.69642 1.76777 0 0 0 0
57 1 2 6.48209 1.76777 0 0 0 0
58 1 2 6.08926 1.76777 0 0 0 0
54 1 2 7.26777 1.37493 0 0 0 0
55 1 2 7.26777 1.76777 0 0 0 0
56 1 2 6.87493 1.76777 0 0 0 0
73 1 3 1.73223 7.23223 0.05 0.05 0 0
74 1 3 2.12507 7.23223 0.05 0.05 0 0
108 1 3 1.73223 7.62507 0.05 0.05 0 0
75 1 3 2.51791 7.23223 0.05 0.05 0 0
76 1 3 2.91074 7.23223 0.05 0.05 0 0
77 1 3 3.30358 7.23223 0.05 0.05 0 0
78 1 3 3.69642 7.23223 0.05 0.05 0 0
79 1 3 4.08926 7.23223 0.05 0.05 0 0
80 1 3 4.48209 7.23223 0.05 0.05 0 0
81 1 3 4.87493 7.23223 0.05 0.05 0 0
82 1 3 5.26777 7.23223 0.05 0.05 0 0
83 1 3 5.26777 7.62507 0.05 0.05 0 0
107 1 3 1.73223 8.01791 0.05 0.05 0 0
84 1 3 5.26777 8.01791 0.05 0.05 0 0
105 1 3 1.73223 8.80358 0.05 0.05 0 0
106 1 3 1.73223 8.41074 0.05 0.05 0 0
85 1 3 5.26777 8.41074 0.05 0.05 0 0
86 1 3 5.26777 8.80358 0.05 0.05 0 0
104 1 3 1.73223 9.19642 0.05 0.05 0 0
103 1 3 1.73223 9.58926 0.05 0.05 0 0
87 1 3 5.26777 9.19642 0.05 0.05 0 0
88 1 3 5.26777 9.58926 0.05 0.05 0 0
102 1 3 1.73223 9.98209 0.05 0.05 0 0
89 1 3 5.26777 9.98209 0.05 0.05 0 0
99 1 3 2.12507 -9.23223 0.05 0.05 0 0
100 1 3 1.73223 -9.23223 0.05 0.05 0 0
101 1 3 1.73223 -9.62507 0.05 0.05 0 0
98 1 3 2.51791 -9.23223 0.05 0.05 0 0
97 1 3 2.91074 -9.23223 0.05 0.05 0 0
96 1 3 3.30358 -9.23223 0.05 0.05 0 0
94 1 3 4.08926 -9.23223 0.05 0.05 0 0
95 1 3 3.69642 -9.23223 0.05 0.05 0 0
93 1 3 4.48209 -9.23223 0.05 0.05 0 0
92 1 3 4.87493 -9.23223 0.05 0.05 0 0
90 1 3 5.26777 -9.62507 0.05 0.05 0 0
91 1 3 5.26777 -9.23223 0.05 0.05 0 0
ITEM: TIMESTEP
800
ITEM: NUMBER OF ATOMS
144
ITEM: BOX BOUNDS pp pp pp
-1.0000000000000000e+01 1.0000000000000000e+01
-1.0000000000000000e+01 1.0000000000000000e+01
-5.0000000000000000e-01 5.0000000000000000e-01
ITEM: ATOMS id type mol x y vx vy fx fy
109 1 4 -1.76777 -7.26777 0 0 0 0
110 1 4 -1.37493 -7.26777 0 0 0 0
144 1 4 -1.76777 -6.87493 0 0 0 0
111 1 4 -0.982093 -7.26777 0 0 0 0
112 1 4 -0.589256 -7.26777 0 0 0 0
113 1 4 -0.196419 -7.26777 0 0 0 0
114 1 4 0.196419 -7.26777 0 0 0 0
115 1 4 0.589256 -7.26777 0 0 0 0
116 1 4 0.982093 -7.26777 0 0 0 0
117 1 4 1.37493 -7.26777 0 0 0 0
118 1 4 1.76777 -7.26777 0 0 0 0
119 1 4 1.76777 -6.87493 0 0 0 0
142 1 4 -1.76777 -6.08926 0 0 0 0
143 1 4 -1.76777 -6.48209 0 0 0 0
120 1 4 1.76777 -6.48209 0 0 0 0
121 1 4 1.76777 -6.08926 0 0 0 0
141 1 4 -1.76777 -5.69642 0 0 0 0
122 1 4 1.76777 -5.69642 0 0 0 0
139 1 4 -1.76777 -4.91074 0 0 0 0
140 1 4 -1.76777 -5.30358 0 0 0 0
123 1 4 1.76777 -5.30358 0 0 0 0
124 1 4 1.76777 -4.91074 0 0 0 0
137 1 4 -1.76777 -4.12507 0 0 0 0
138 1 4 -1.76777 -4.51791 0 0 0 0
125 1 4 1.76777 -4.51791 0 0 0 0
126 1 4 1.76777 -4.12507 0 0 0 0
135 1 4 -1.37493 -3.73223 0 0 0 0
136 1 4 -1.76777 -3.73223 0 0 0 0
134 1 4 -0.982093 -3.73223 0 0 0 0
132 1 4 -0.196419 -3.73223 0 0 0 0
133 1 4 -0.589256 -3.73223 0 0 0 0
130 1 4 0.589256 -3.73223 0 0 0 0
131 1 4 0.196419 -3.73223 0 0 0 0
129 1 4 0.982093 -3.73223 0 0 0 0
127 1 4 1.76777 -3.73223 0 0 0 0
128 1 4 1.37493 -3.73223 0 0 0 0
1 1 1 0.261021 -1.76777 0.000154238 -4.89922e-16 0 0
36 1 1 0.261021 -1.37493 0.000154238 -4.89922e-16 0 0
2 1 1 0.653858 -1.76777 0.000154238 -3.37825e-16 0 0
3 1 1 1.04669 -1.76777 0.000154238 -1.85728e-16 0 0
4 1 1 1.43953 -1.76777 0.000154238 -3.36314e-17 0 0
5 1 1 1.83237 -1.76777 0.000154238 1.18466e-16 0 0
6 1 1 2.22521 -1.76777 0.000154238 2.70563e-16 0 0
7 1 1 2.61804 -1.76777 0.000154238 4.22659e-16 0 0
8 1 1 3.01088 -1.76777 0.000154238 5.74756e-16 0 0
9 1 1 3.40372 -1.76777 0.000154238 7.26853e-16 0 0
10 1 1 3.79655 -1.76777 0.000154238 8.7895e-16 0 0
11 1 1 3.79655 -1.37493 0.000154238 8.7895e-16 0 0
37 1 2 4.20345 -1.76777 0.0998458 -3.61361e-17 0 0
72 1 2 4.20345 -1.37493 0.0998458 -3.61361e-17 0 0
38 1 2 4.59628 -1.76777 0.0998458 -7.13315e-17 0 0
39 1 2 4.98912 -1.76777 0.0998458 -1.06527e-16 0 0
40 1 2 5.38196 -1.76777 0.0998458 -1.41722e-16 0 0
41 1 2 5.77479 -1.76777 0.0998458 -1.76918e-16 0 0
42 1 2 6.16763 -1.76777 0.0998458 -2.12113e-16 0 0
43 1 2 6.56047 -1.76777 0.0998458 -2.47308e-16 0 0
44 1 2 6.95331 -1.76777 0.0998458 -2.82504e-16 0 0
45 1 2 7.34614 -1.76777 0.0998458 -3.17699e-16 0 0
46 1 2 7.73898 -1.76777 0.0998458 -3.52895e-16 0 0
47 1 2 7.73898 -1.37493 0.0998458 -3.52895e-16 0 0
35 1 1 0.261021 -0.982093 0.000154238 -4.89922e-16 0 0
12 1 1 3.79655 -0.982093 0.000154238 8.7895e-16 0 0
71 1 2 4.20345 -0.982093 0.0998458 -3.61361e-17 0 0
48 1 2 7.73898 -0.982093 0.0998458 -3.52895e-16 0 0
33 1 1 0.261021 -0.196419 0.000154238 -4.89922e-16 0 0
34 1 1 0.261021 -0.589256 0.000154238 -4.89922e-16 0 0
13 1 1 3.79655 -0.589256 0.000154238 8.7895e-16 0 0
14 1 1 3.79655 -0.196419 0.000154238 8.7895e-16 0 0
69 1 2 4.20345 -0.196419 0.0998458 -3.61361e-17 0 0
70 1 2 4.20345 -0.589256 0.0998458 -3.61361e-17 0 0
49 1 2 7.73898 -0.589256 0.0998458 -3.52895e-16 0 0
50 1 2 7.73898 -0.196419 0.0998458 -3.52895e-16 0 0
31 1 1 0.261021 0.589256 0.000154238 -4.89922e-16 0 0
32 1 1 0.261021 0.196419 0.000154238 -4.89922e-16 0 0
15 1 1 3.79655 0.196419 0.000154238 8.7895e-16 0 0
16 1 1 3.79655 0.589256 0.000154238 8.7895e-16 0 0
67 1 2 4.20345 0.589256 0.0998458 -3.61361e-17 0 0
68 1 2 4.20345 0.196419 0.0998458 -3.61361e-17 0 0
51 1 2 7.73898 0.196419 0.0998458 -3.52895e-16 0 0
52 1 2 7.73898 0.589256 0.0998458 -3.52895e-16 0 0
30 1 1 0.261021 0.982093 0.000154238 -4.89922e-16 0 0
17 1 1 3.79655 0.982093 0.000154238 8.7895e-16 0 0
66 1 2 4.20345 0.982093 0.0998458 -3.61361e-17 0 0
53 1 2 7.73898 0.982093 0.0998458 -3.52895e-16 0 0
28 1 1 0.261021 1.76777 0.000154238 -4.89922e-16 0 0
29 1 1 0.261021 1.37493 0.000154238 -4.89922e-16 0 0
27 1 1 0.653858 1.76777 0.000154238 -3.37825e-16 0 0
26 1 1 1.04669 1.76777 0.000154238 -1.85728e-16 0 0
25 1 1 1.43953 1.76777 0.000154238 -3.36314e-17 0 0
24 1 1 1.83237 1.76777 0.000154238 1.18466e-16 0 0
23 1 1 2.22521 1.76777 0.000154238 2.70563e-16 0 0
22 1 1 2.61804 1.76777 0.000154238 4.22659e-16 0 0
21 1 1 3.01088 1.76777 0.000154238 5.74756e-16 0 0
20 1 1 3.40372 1.76777 0.000154238 7.26853e-16 0 0
18 1 1 3.79655 1.37493 0.000154238 8.7895e-16 0 0
19 1 1 3.79655 1.76777 0.000154238 8.7895e-16 0 0
64 1 2 4.20345 1.76777 0.0998458 -3.61361e-17 0 0
65 1 2 4.20345 1.37493 0.0998458 -3.61361e-17 0 0
62 1 2 4.98912 1.76777 0.0998458 -1.06527e-16 0 0
63 1 2 4.59628 1.76777 0.0998458 -7.13315e-17 0 0
60 1 2 5.77479 1.76777 0.0998458 -1.76918e-16 0 0
61 1 2 5.38196 1.76777 0.0998458 -1.41722e-16 0 0
59 1 2 6.16763 1.76777 0.0998458 -2.12113e-16 0 0
57 1 2 6.95331 1.76777 0.0998458 -2.82504e-16 0 0
58 1 2 6.56047 1.76777 0.0998458 -2.47308e-16 0 0
54 1 2 7.73898 1.37493 0.0998458 -3.52895e-16 0 0
55 1 2 7.73898 1.76777 0.0998458 -3.52895e-16 0 0
56 1 2 7.34614 1.76777 0.0998458 -3.17699e-16 0 0
73 1 3 2.23223 7.73223 0.05 0.05 0 0
74 1 3 2.62507 7.73223 0.05 0.05 0 0
108 1 3 2.23223 8.12507 0.05 0.05 0 0
75 1 3 3.01791 7.73223 0.05 0.05 0 0
76 1 3 3.41074 7.73223 0.05 0.05 0 0
77 1 3 3.80358 7.73223 0.05 0.05 0 0
78 1 3 4.19642 7.73223 0.05 0.05 0 0
79 1 3 4.58926 7.73223 0.05 0.05 0 0
80 1 3 4.98209 7.73223 0.05 0.05 0 0
81 1 3 5.37493 7.73223 0.05 0.05 0 0
82 1 3 5.76777 7.73223 0.05 0.05 0 0
83 1 3 5.76777 8.12507 0.05 0.05 0 0
107 1 3 2.23223 8.51791 0.05 0.05 0 0
84 1 3 5.76777 8.51791 0.05 0.05 0 0
105 1 3 2.23223 9.30358 0.05 0.05 0 0
106 1 3 2.23223 8.91074 0.05 0.05 0 0
85 1 3 5.76777 8.91074 0.05 0.05 0 0
86 1 3 5.76777 9.30358 0.05 0.05 0 0
104 1 3 2.23223 9.69642 0.05 0.05 0 0
103 1 3 2.23223 -9.91074 0.05 0.05 0 0
87 1 3 5.76777 9.69642 0.05 0.05 0 0
88 1 3 5.76777 -9.91074 0.05 0.05 0 0
102 1 3 2.23223 -9.51791 0.05 0.05 0 0
89 1 3 5.76777 -9.51791 0.05 0.05 0 0
99 1 3 2.62507 -8.73223 0.05 0.05 0 0
100 1 3 2.23223 -8.73223 0.05 0.05 0 0
101 1 3 2.23223 -9.12507 0.05 0.05 0 0
98 1 3 3.01791 -8.73223 0.05 0.05 0 0
97 1 3 3.41074 -8.73223 0.05 0.05 0 0
96 1 3 3.80358 -8.73223 0.05 0.05 0 0
94 1 3 4.58926 -8.73223 0.05 0.05 0 0
95 1 3 4.19642 -8.73223 0.05 0.05 0 0
93 1 3 4.98209 -8.73223 0.05 0.05 0 0
92 1 3 5.37493 -8.73223 0.05 0.05 0 0
90 1 3 5.76777 -9.12507 0.05 0.05 0 0
91 1 3 5.76777 -8.73223 0.05 0.05 0 0
ITEM: TIMESTEP
900
ITEM: NUMBER OF ATOMS
144
ITEM: BOX BOUNDS pp pp pp
-1.0000000000000000e+01 1.0000000000000000e+01
-1.0000000000000000e+01 1.0000000000000000e+01
-5.0000000000000000e-01 5.0000000000000000e-01
ITEM: ATOMS id type mol x y vx vy fx fy
109 1 4 -1.76777 -7.26777 0 0 0 0
110 1 4 -1.37493 -7.26777 0 0 0 0
144 1 4 -1.76777 -6.87493 0 0 0 0
111 1 4 -0.982093 -7.26777 0 0 0 0
112 1 4 -0.589256 -7.26777 0 0 0 0
113 1 4 -0.196419 -7.26777 0 0 0 0
114 1 4 0.196419 -7.26777 0 0 0 0
115 1 4 0.589256 -7.26777 0 0 0 0
116 1 4 0.982093 -7.26777 0 0 0 0
117 1 4 1.37493 -7.26777 0 0 0 0
118 1 4 1.76777 -7.26777 0 0 0 0
119 1 4 1.76777 -6.87493 0 0 0 0
142 1 4 -1.76777 -6.08926 0 0 0 0
143 1 4 -1.76777 -6.48209 0 0 0 0
120 1 4 1.76777 -6.48209 0 0 0 0
121 1 4 1.76777 -6.08926 0 0 0 0
141 1 4 -1.76777 -5.69642 0 0 0 0
122 1 4 1.76777 -5.69642 0 0 0 0
139 1 4 -1.76777 -4.91074 0 0 0 0
140 1 4 -1.76777 -5.30358 0 0 0 0
123 1 4 1.76777 -5.30358 0 0 0 0
124 1 4 1.76777 -4.91074 0 0 0 0
137 1 4 -1.76777 -4.12507 0 0 0 0
138 1 4 -1.76777 -4.51791 0 0 0 0
125 1 4 1.76777 -4.51791 0 0 0 0
126 1 4 1.76777 -4.12507 0 0 0 0
135 1 4 -1.37493 -3.73223 0 0 0 0
136 1 4 -1.76777 -3.73223 0 0 0 0
134 1 4 -0.982093 -3.73223 0 0 0 0
132 1 4 -0.196419 -3.73223 0 0 0 0
133 1 4 -0.589256 -3.73223 0 0 0 0
130 1 4 0.589256 -3.73223 0 0 0 0
131 1 4 0.196419 -3.73223 0 0 0 0
129 1 4 0.982093 -3.73223 0 0 0 0
127 1 4 1.76777 -3.73223 0 0 0 0
128 1 4 1.37493 -3.73223 0 0 0 0
1 1 1 0.262563 -1.76777 0.000154238 -4.89922e-16 0 0
36 1 1 0.262563 -1.37493 0.000154238 -4.89922e-16 0 0
2 1 1 0.6554 -1.76777 0.000154238 -3.37825e-16 0 0
3 1 1 1.04824 -1.76777 0.000154238 -1.85728e-16 0 0
4 1 1 1.44107 -1.76777 0.000154238 -3.36314e-17 0 0
5 1 1 1.83391 -1.76777 0.000154238 1.18466e-16 0 0
6 1 1 2.22675 -1.76777 0.000154238 2.70563e-16 0 0
7 1 1 2.61959 -1.76777 0.000154238 4.22659e-16 0 0
8 1 1 3.01242 -1.76777 0.000154238 5.74756e-16 0 0
9 1 1 3.40526 -1.76777 0.000154238 7.26853e-16 0 0
10 1 1 3.7981 -1.76777 0.000154238 8.7895e-16 0 0
11 1 1 3.7981 -1.37493 0.000154238 8.7895e-16 0 0
37 1 2 5.2019 -1.76777 0.0998458 -3.61361e-17 0 0
72 1 2 5.2019 -1.37493 0.0998458 -3.61361e-17 0 0
38 1 2 5.59474 -1.76777 0.0998458 -7.13315e-17 0 0
39 1 2 5.98758 -1.76777 0.0998458 -1.06527e-16 0 0
40 1 2 6.38041 -1.76777 0.0998458 -1.41722e-16 0 0
41 1 2 6.77325 -1.76777 0.0998458 -1.76918e-16 0 0
42 1 2 7.16609 -1.76777 0.0998458 -2.12113e-16 0 0
43 1 2 7.55893 -1.76777 0.0998458 -2.47308e-16 0 0
44 1 2 7.95176 -1.76777 0.0998458 -2.82504e-16 0 0
45 1 2 8.3446 -1.76777 0.0998458 -3.17699e-16 0 0
46 1 2 8.73744 -1.76777 0.0998458 -3.52895e-16 0 0
47 1 2 8.73744 -1.37493 0.0998458 -3.52895e-16 0 0
35 1 1 0.262563 -0.982093 0.000154238 -4.89922e-16 0 0
12 1 1 3.7981 -0.982093 0.000154238 8.7895e-16 0 0
71 1 2 5.2019 -0.982093 0.0998458 -3.61361e-17 0 0
48 1 2 8.73744 -0.982093 0.0998458 -3.52895e-16 0 0
33 1 1 0.262563 -0.196419 0.000154238 -4.89922e-16 0 0
34 1 1 0.262563 -0.589256 0.000154238 -4.89922e-16 0 0
13 1 1 3.7981 -0.589256 0.000154238 8.7895e-16 0 0
14 1 1 3.7981 -0.196419 0.000154238 8.7895e-16 0 0
69 1 2 5.2019 -0.196419 0.0998458 -3.61361e-17 0 0
70 1 2 5.2019 -0.589256 0.0998458 -3.61361e-17 0 0
49 1 2 8.73744 -0.589256 0.0998458 -3.52895e-16 0 0
50 1 2 8.73744 -0.196419 0.0998458 -3.52895e-16 0 0
31 1 1 0.262563 0.589256 0.000154238 -4.89922e-16 0 0
32 1 1 0.262563 0.196419 0.000154238 -4.89922e-16 0 0
15 1 1 3.7981 0.196419 0.000154238 8.7895e-16 0 0
16 1 1 3.7981 0.589256 0.000154238 8.7895e-16 0 0
67 1 2 5.2019 0.589256 0.0998458 -3.61361e-17 0 0
68 1 2 5.2019 0.196419 0.0998458 -3.61361e-17 0 0
51 1 2 8.73744 0.196419 0.0998458 -3.52895e-16 0 0
52 1 2 8.73744 0.589256 0.0998458 -3.52895e-16 0 0
30 1 1 0.262563 0.982093 0.000154238 -4.89922e-16 0 0
17 1 1 3.7981 0.982093 0.000154238 8.7895e-16 0 0
66 1 2 5.2019 0.982093 0.0998458 -3.61361e-17 0 0
53 1 2 8.73744 0.982093 0.0998458 -3.52895e-16 0 0
28 1 1 0.262563 1.76777 0.000154238 -4.89922e-16 0 0
29 1 1 0.262563 1.37493 0.000154238 -4.89922e-16 0 0
27 1 1 0.6554 1.76777 0.000154238 -3.37825e-16 0 0
26 1 1 1.04824 1.76777 0.000154238 -1.85728e-16 0 0
25 1 1 1.44107 1.76777 0.000154238 -3.36314e-17 0 0
24 1 1 1.83391 1.76777 0.000154238 1.18466e-16 0 0
23 1 1 2.22675 1.76777 0.000154238 2.70563e-16 0 0
22 1 1 2.61959 1.76777 0.000154238 4.22659e-16 0 0
21 1 1 3.01242 1.76777 0.000154238 5.74756e-16 0 0
20 1 1 3.40526 1.76777 0.000154238 7.26853e-16 0 0
18 1 1 3.7981 1.37493 0.000154238 8.7895e-16 0 0
19 1 1 3.7981 1.76777 0.000154238 8.7895e-16 0 0
64 1 2 5.2019 1.76777 0.0998458 -3.61361e-17 0 0
65 1 2 5.2019 1.37493 0.0998458 -3.61361e-17 0 0
62 1 2 5.98758 1.76777 0.0998458 -1.06527e-16 0 0
63 1 2 5.59474 1.76777 0.0998458 -7.13315e-17 0 0
60 1 2 6.77325 1.76777 0.0998458 -1.76918e-16 0 0
61 1 2 6.38041 1.76777 0.0998458 -1.41722e-16 0 0
59 1 2 7.16609 1.76777 0.0998458 -2.12113e-16 0 0
57 1 2 7.95176 1.76777 0.0998458 -2.82504e-16 0 0
58 1 2 7.55893 1.76777 0.0998458 -2.47308e-16 0 0
54 1 2 8.73744 1.37493 0.0998458 -3.52895e-16 0 0
55 1 2 8.73744 1.76777 0.0998458 -3.52895e-16 0 0
56 1 2 8.3446 1.76777 0.0998458 -3.17699e-16 0 0
73 1 3 2.73223 8.23223 0.05 0.05 0 0
74 1 3 3.12507 8.23223 0.05 0.05 0 0
108 1 3 2.73223 8.62507 0.05 0.05 0 0
75 1 3 3.51791 8.23223 0.05 0.05 0 0
76 1 3 3.91074 8.23223 0.05 0.05 0 0
77 1 3 4.30358 8.23223 0.05 0.05 0 0
78 1 3 4.69642 8.23223 0.05 0.05 0 0
79 1 3 5.08926 8.23223 0.05 0.05 0 0
80 1 3 5.48209 8.23223 0.05 0.05 0 0
81 1 3 5.87493 8.23223 0.05 0.05 0 0
82 1 3 6.26777 8.23223 0.05 0.05 0 0
83 1 3 6.26777 8.62507 0.05 0.05 0 0
107 1 3 2.73223 9.01791 0.05 0.05 0 0
84 1 3 6.26777 9.01791 0.05 0.05 0 0
105 1 3 2.73223 9.80358 0.05 0.05 0 0
106 1 3 2.73223 9.41074 0.05 0.05 0 0
85 1 3 6.26777 9.41074 0.05 0.05 0 0
86 1 3 6.26777 9.80358 0.05 0.05 0 0
104 1 3 2.73223 -9.80358 0.05 0.05 0 0
103 1 3 2.73223 -9.41074 0.05 0.05 0 0
87 1 3 6.26777 -9.80358 0.05 0.05 0 0
88 1 3 6.26777 -9.41074 0.05 0.05 0 0
102 1 3 2.73223 -9.01791 0.05 0.05 0 0
89 1 3 6.26777 -9.01791 0.05 0.05 0 0
99 1 3 3.12507 -8.23223 0.05 0.05 0 0
100 1 3 2.73223 -8.23223 0.05 0.05 0 0
101 1 3 2.73223 -8.62507 0.05 0.05 0 0
98 1 3 3.51791 -8.23223 0.05 0.05 0 0
97 1 3 3.91074 -8.23223 0.05 0.05 0 0
96 1 3 4.30358 -8.23223 0.05 0.05 0 0
94 1 3 5.08926 -8.23223 0.05 0.05 0 0
95 1 3 4.69642 -8.23223 0.05 0.05 0 0
93 1 3 5.48209 -8.23223 0.05 0.05 0 0
92 1 3 5.87493 -8.23223 0.05 0.05 0 0
90 1 3 6.26777 -8.62507 0.05 0.05 0 0
91 1 3 6.26777 -8.23223 0.05 0.05 0 0
ITEM: TIMESTEP
1000
ITEM: NUMBER OF ATOMS
144
ITEM: BOX BOUNDS pp pp pp
-1.0000000000000000e+01 1.0000000000000000e+01
-1.0000000000000000e+01 1.0000000000000000e+01
-5.0000000000000000e-01 5.0000000000000000e-01
ITEM: ATOMS id type mol x y vx vy fx fy
109 1 4 -1.76777 -7.26777 0 0 0 0
110 1 4 -1.37493 -7.26777 0 0 0 0
144 1 4 -1.76777 -6.87493 0 0 0 0
111 1 4 -0.982093 -7.26777 0 0 0 0
112 1 4 -0.589256 -7.26777 0 0 0 0
113 1 4 -0.196419 -7.26777 0 0 0 0
114 1 4 0.196419 -7.26777 0 0 0 0
115 1 4 0.589256 -7.26777 0 0 0 0
116 1 4 0.982093 -7.26777 0 0 0 0
117 1 4 1.37493 -7.26777 0 0 0 0
118 1 4 1.76777 -7.26777 0 0 0 0
119 1 4 1.76777 -6.87493 0 0 0 0
142 1 4 -1.76777 -6.08926 0 0 0 0
143 1 4 -1.76777 -6.48209 0 0 0 0
120 1 4 1.76777 -6.48209 0 0 0 0
121 1 4 1.76777 -6.08926 0 0 0 0
141 1 4 -1.76777 -5.69642 0 0 0 0
122 1 4 1.76777 -5.69642 0 0 0 0
139 1 4 -1.76777 -4.91074 0 0 0 0
140 1 4 -1.76777 -5.30358 0 0 0 0
123 1 4 1.76777 -5.30358 0 0 0 0
124 1 4 1.76777 -4.91074 0 0 0 0
137 1 4 -1.76777 -4.12507 0 0 0 0
138 1 4 -1.76777 -4.51791 0 0 0 0
125 1 4 1.76777 -4.51791 0 0 0 0
126 1 4 1.76777 -4.12507 0 0 0 0
135 1 4 -1.37493 -3.73223 0 0 0 0
136 1 4 -1.76777 -3.73223 0 0 0 0
134 1 4 -0.982093 -3.73223 0 0 0 0
132 1 4 -0.196419 -3.73223 0 0 0 0
133 1 4 -0.589256 -3.73223 0 0 0 0
130 1 4 0.589256 -3.73223 0 0 0 0