# Generated using make_ls_square.py

36 atoms
 1 atom types

-1.7677669529663689 1.7677669529663689 xlo xhi
-1.7677669529663689 1.7677669529663689 ylo yhi
-0.5 0.5 zlo zhi

Atoms

1 1 1 -1.7677669529663689 -1.7677669529663689 0.0
2 1 1 -1.3749298523071758 -1.7677669529663689 0.0
3 1 1 -0.9820927516479827 -1.7677669529663689 0.0
4 1 1 -0.5892556509887896 -1.7677669529663689 0.0
5 1 1 -0.19641855032959654 -1.7677669529663689 0.0
6 1 1 0.19641855032959654 -1.7677669529663689 0.0
7 1 1 0.5892556509887896 -1.7677669529663689 0.0
8 1 1 0.9820927516479827 -1.7677669529663689 0.0
9 1 1 1.3749298523071758 -1.7677669529663689 0.0
10 1 1 1.7677669529663689 -1.7677669529663689 0.0
11 1 1 1.7677669529663689 -1.3749298523071758 0.0
12 1 1 1.7677669529663689 -0.9820927516479828 0.0
13 1 1 1.7677669529663689 -0.5892556509887897 0.0
14 1 1 1.7677669529663689 -0.19641855032959665 0.0
15 1 1 1.7677669529663689 0.19641855032959643 0.0
16 1 1 1.7677669529663689 0.5892556509887895 0.0
17 1 1 1.7677669529663689 0.9820927516479826 0.0
18 1 1 1.7677669529663689 1.3749298523071758 0.0
19 1 1 1.767766952966369 1.7677669529663687 0.0
20 1 1 1.374929852307176 1.7677669529663687 0.0
21 1 1 0.9820927516479829 1.7677669529663687 0.0
22 1 1 0.5892556509887898 1.7677669529663689 0.0
23 1 1 0.19641855032959676 1.7677669529663689 0.0
24 1 1 -0.19641855032959632 1.7677669529663689 0.0
25 1 1 -0.5892556509887894 1.7677669529663689 0.0
26 1 1 -0.9820927516479825 1.767766952966369 0.0
27 1 1 -1.3749298523071756 1.767766952966369 0.0
28 1 1 -1.7677669529663687 1.767766952966369 0.0
29 1 1 -1.7677669529663687 1.374929852307176 0.0
30 1 1 -1.7677669529663687 0.982092751647983 0.0
31 1 1 -1.7677669529663689 0.58925565098879 0.0
32 1 1 -1.7677669529663689 0.19641855032959687 0.0
33 1 1 -1.7677669529663689 -0.1964185503295962 0.0
34 1 1 -1.7677669529663689 -0.5892556509887893 0.0
35 1 1 -1.767766952966369 -0.9820927516479824 0.0
36 1 1 -1.767766952966369 -1.3749298523071756 0.0
